
10227  0.0000000e+00
  15.9121330  23.0186936  15.1040231  15.0130816  22.2564801  15.3302865
  16.7753578  22.2716650  14.7379192  15.5718879  23.4635088  14.0402248
  15.8961820  24.0244078  16.1777193  14.7819002  24.0104438  16.6096533
  16.9719977  23.8012865  17.2006795  17.6203779  23.0667197  16.5085410
  17.8712551  24.2113107  17.8664590  16.4112083  23.4802249  18.5433089
  15.6556526  22.5581046  18.4571882  15.8326190  24.1113912  19.3703939
  17.2402703  22.4656083  19.9186249  17.9084376  21.1192133  19.0009654
  17.4773191  20.6695295  17.9808329  19.0896565  21.1741079  18.8665245
  17.5041508  20.3598632  19.8313495  16.2634736  25.3357733  15.5773641
  17.1604015  25.4261701  14.7606298  15.5768419  26.3894276  15.9778418
  14.4711640  26.1667943  15.5823146  15.9668666  27.7411629  15.5648992
  15.8690425  27.6950193  14.3735528  14.8537240  28.7325946  15.9285163
  13.8023084  28.4463861  15.4292018  14.9607636  29.8157007  15.4288166
  14.6322892  29.0090153  17.4101716  13.8465210  29.9160141  17.3956299
  15.5028715  29.4644435  18.0744620  13.6745590  28.0410667  18.1377162
  13.5626326  26.8442321  17.7827845  13.0640236  28.4750651  19.1749090
  17.3335240  28.1877776  16.0799757  17.8539846  27.6482256  17.0476525
  17.9037875  29.2175966  15.4409558  17.3068958  29.6852458  14.5236503
  19.2156037  29.6881284  15.7663236  20.0461419  28.9284296  15.3914986
  19.5367802  30.9843119  14.9759344  19.1425886  32.0866978  14.7262298
  19.3063167  30.5160536  13.8918911  20.8536180  31.5766566  15.3260086
  22.0045233  31.0416942  14.8023328  22.0608168  30.5351841  13.7272982
  23.2501092  31.5272873  15.1559090  24.2517114  31.1135116  14.6655707
  23.3715595  32.5715150  16.0332826  24.4225155  33.1228416  16.1085579
  22.2288546  33.1587834  16.5675339  22.3857413  34.2498538  17.0135619
  20.9773149  32.6666544  16.2065527  20.2685353  33.6148520  16.0751119
  19.4286635  29.9688385  17.2658133  20.4095849  29.5650629  17.8594332
  18.5184711  30.7229356  17.8372416  17.6391069  31.2069981  17.2007597
  18.6859827  31.1377575  19.2348619  19.7267888  31.7059329  19.3336765
  17.6259555  32.1836924  19.6552695  16.4659959  31.9803062  19.4527708
  17.6831847  32.4071570  21.1683896  17.2897873  31.4796233  21.8077405
  16.8449930  33.2165960  21.4645485  18.6900238  32.9339216  21.5430817
  17.9206565  33.4863849  18.9278221  18.9710124  34.0464015  19.0553289
  17.1651615  34.3353664  19.3240743  17.6502239  33.5742215  17.7618646
  18.6556514  29.8954254  20.1434674  19.4032893  29.7853311  21.0894778
  17.7808325  28.9748012  19.8537416  16.7074356  29.4542296  20.0382560
  17.6705951  27.7137122  20.6150609  17.4843496  27.8427262  21.7878619
  16.4490702  26.9726509  20.1740371  15.4715138  27.4399368  20.6939634
  16.1250000  26.7400917  19.0516179  16.4836346  25.9584927  20.8147598
  18.9340434  26.8778250  20.4511037  19.4844190  26.3691330  21.4324462
  19.4188070  26.7561798  19.2316478  18.5933848  26.1321399  18.6616369
  20.7551280  26.1110696  19.0605660  20.7254486  24.9802831  19.4352218
  21.1835457  26.1017091  17.5892007  22.3068756  25.6877759  17.6504161
  21.4195755  27.1506850  17.0804646  20.3759138  25.1782850  16.7053243
  19.2995393  25.5687766  16.4051703  20.4547612  24.0723909  17.1499538
  21.0430243  24.9359120  15.3338638  20.6651240  23.9274372  14.8077610
  22.1957309  24.6225182  15.4330244  20.9511668  26.1590207  14.4171734
  21.6912028  25.7783202  13.5495446  21.5619336  27.1519439  14.6668701
  19.6493130  26.2524636  13.7043185  18.7282156  26.9048450  14.0846238
  19.2624207  25.2657985  13.1406727  19.9254907  26.9126440  12.7341507
  21.8768896  26.7195220  19.9023543  22.7542574  26.0171522  20.4503437
  21.9448446  28.0598524  19.8813174  21.0114420  28.6566096  19.4821302
  22.9924460  28.7619249  20.5674891  23.9715822  28.3440468  20.0321236
  22.8153413  30.2519969  20.3120653  22.8910064  30.5050425  19.1479469
  21.8131843  30.6945784  20.7774252  23.8978809  31.1725081  20.9063139
  24.0063571  31.0046350  22.0817736  25.2725706  30.9841543  20.2955692
  25.8275169  31.9539669  19.8826635  25.3688586  30.3435145  19.2985260
  26.0826459  30.4843289  21.0140973  23.4740564  32.6277184  20.8388395
  23.8428203  33.2248367  21.8107129  23.9769229  33.2499767  19.9451316
  22.3363826  32.9900604  20.7714923  22.9523977  28.4826827  22.0823356
  23.9752384  28.2086167  22.7197983  21.7533262  28.5360378  22.6310594
  20.6674351  28.6444909  22.1846568  21.5736956  28.2899481  24.0866719
  22.3643047  28.8767245  24.7556447  20.1632429  28.6245410  24.5378135
  20.0768963  28.4752732  25.7208813  19.2299267  27.9542383  24.2178679
  19.8430922  30.0740010  24.5180536  20.8141135  31.0427764  24.6503896
  21.5492589  30.9924831  25.5866133  20.5131105  32.4157670  24.6520731
  21.3235091  33.2570116  24.8727053  19.2021976  32.8392020  24.5219498
  18.9276525  33.9804562  24.7160785  18.2233329  31.8818459  24.4113643
  17.1463456  32.2067964  24.8007413  18.5368016  30.5007119  24.4102216
  17.6063797  29.8656344  24.7943277  21.9126973  26.8158087  24.4152837
  22.5997642  26.5669853  25.4063094  21.4784083  25.8955366  23.5733494
  20.2927490  25.8805298  23.6637308  21.7837763  24.4663906  23.7645117
  21.3430058  24.1162419  24.8168716  20.9992762  23.5720928  22.8008131
  21.2357974  23.9387708  21.6943051  19.8203838  23.6045880  23.0011525
  21.3678321  22.0947964  22.8629412  22.5520585  21.9909122  22.8034285
  20.8916858  21.6207414  23.8505416  20.8802137  21.3486116  21.6150283
  19.6999090  21.1998777  21.6911140  21.1434007  21.8325268  20.5571348
  21.6293737  20.0230973  21.3841040  21.1714193  19.4663198  20.4257837
  22.7965504  20.0053158  21.1206436  21.3157333  19.1061159  22.5258377
  20.1541126  18.9918719  22.7941351  21.5866867  18.0032052  22.1301950
  21.8846910  19.0905374  23.5773288  23.2876585  24.2535160  23.7044821
  23.8443017  23.5405664  24.5167076  23.9582329  24.9458034  22.7842787
  23.4345605  25.8795609  22.2958228  25.3890017  24.8178989  22.6158032
  25.5989629  23.6648771  22.3925636  25.8372908  25.6199763  21.3960579
  25.5469149  26.7379317  21.1161227  25.5031832  25.0222587  20.4114337
  27.3165436  25.6962434  21.2187914  28.0474902  24.5709708  20.9502833
  27.6343055  23.5663146  20.4666002  29.4196751  24.6345184  20.7177296
  29.9675857  23.8012772  20.0697634  30.0767331  25.8508236  20.8102906
  31.0759126  25.9744844  20.1770533  29.3449469  26.9909240  21.0662514
  29.9269810  27.9996964  20.8227015  27.9966735  26.9103689  21.2700131
  27.5605674  27.9941876  21.0578375  26.1019874  25.2612230  23.8828455
  26.9569143  24.5579836  24.4006248  25.8110937  26.4563737  24.3630055
  25.1675874  27.3443287  23.9334050  26.4737408  26.9488525  25.5556984
  27.6569084  26.9218189  25.4315029  26.1107605  28.4193759  25.8640025
  25.0100031  28.6927273  26.2351172  26.6714965  28.7343630  26.8736878
  26.7209342  29.4607440  24.9227430  28.0313569  29.3805083  24.4683768
  28.8701988  29.1723701  25.2862030  28.5770451  30.3552060  23.6379445
  29.7459624  30.4405585  23.4320894  27.8107317  31.4157920  23.2410084
  28.3248741  32.3287685  22.6779904  26.4931408  31.5063871  23.6597194
  26.1560431  32.6359537  23.8142555  25.9483706  30.5341507  24.5079027
  25.2047818  31.0394180  25.2880243  26.2062847  26.0534920  26.7701821
  27.1317347  25.8085313  27.5649183  24.9764826  25.5890382  26.9184067
  24.1600139  26.3865432  26.6062872  24.5719618  24.7056558  28.0148320
  24.7478379  25.2398180  29.0677163  23.0581333  24.4774480  27.9400975
  22.5059294  25.5376128  27.9731357  22.7593213  23.8372244  26.9829772
  22.4183031  23.6831415  29.0821406  22.8710103  22.6062210  29.3132323
  22.5339702  24.3425168  30.0669768  20.9392757  23.4388900  28.8197854
  20.6434955  22.9636538  27.7660579  20.2975220  24.4373499  28.9671317
  20.3714852  22.4150558  29.7803642  20.5125816  22.7104671  30.9300080
  20.8079586  21.3015793  29.7889831  18.9030813  22.2271304  29.5776455
  18.4622280  21.6291104  30.5219089  18.5728404  21.5444892  28.6489324
  18.1845895  23.1855027  29.5459100  25.3418071  23.3795574  27.9325440
  25.8607658  22.8850395  28.9343334  25.4705120  22.8432275  26.7216257
  25.4012408  23.3962177  25.6855999  26.2008442  21.5980830  26.4947272
  25.7035243  20.7885938  27.2131074  26.0344035  21.0817132  25.0411080
  26.7761749  21.7574267  24.3955049  26.4143019  19.9941279  24.6930270
  24.6325197  20.5165989  24.7407801  23.8124721  20.2856641  25.6706537
  24.3436051  20.3315513  23.5049469  27.6802944  21.7345437  26.8254122
  28.2641794  20.8120925  27.4164478  28.3337166  22.8279091  26.3802543
  27.8830537  23.8527673  26.0152136  29.7294150  23.0154731  26.6557931
  30.2404492  22.0365474  26.2118397  30.3236027  24.2593766  25.9652324
  29.9738777  25.2825825  26.4716007  31.4753882  24.2233014  26.2858597
  30.4031345  24.3486424  24.4518143  29.3643053  24.3759764  23.8773888
  31.0884048  25.6924971  24.1449705  30.3903070  26.6625611  24.1649786
  31.6470383  25.7527176  23.0848039  32.0197151  26.0367817  24.8201796
  31.1926552  23.2200928  23.8673975  30.5398442  22.6707572  23.0248768
  32.1805232  23.5902148  23.3044520  31.6041568  22.2948541  24.4883530
  29.9687448  23.1407476  28.1326626  30.9067831  22.5805491  28.6426468
  29.1439107  23.9207127  28.8161391  28.1599915  24.4601031  28.4605310
  29.2971168  24.0741586  30.2652762  30.3710622  24.5835840  30.3279906
  28.2950677  25.1020028  30.8187073  28.4550477  26.1767638  30.3136525
  27.1282559  24.8925123  30.6896306  28.4266561  25.3647407  32.3297471
  28.0402925  24.3965486  32.9047986  29.8166486  25.8730832  32.6484206
  30.1311288  26.8138742  31.9660194  30.8531247  25.2829151  32.7088196
  29.8158701  26.4181441  33.7177175  27.4044067  26.3484356  32.8245456
  26.2839566  26.2641675  32.4047940  27.7489245  27.4962260  32.7897083
  27.2324468  26.3159838  34.0122365  29.1268436  22.7251474  30.9644876
  29.8731700  22.4139572  31.8897204  28.2157984  21.9065640  30.4631175
  27.1344322  22.3684741  30.6396569  28.0135790  20.5701159  31.0209515
  27.0738349  20.0601984  30.5072218  27.6607365  20.7144081  32.1533789
  29.2322631  19.6796281  30.8392198  29.5727853  18.8870420  31.7061696
  29.8962362  19.7938842  29.6882584  29.5744695  20.4563533  28.7725254
  31.1362215  19.0884500  29.4832582  31.0431275  17.9544563  29.8456955
  31.6013343  19.1898826  28.0281519  31.9383457  20.2411419  27.5744931
  32.6897572  18.6953649  28.1391329  30.8292892  18.2900463  27.1358969
  29.8120641  18.7454108  26.7117516  30.6370383  17.2351651  27.6597502
  31.6038591  18.0622647  25.8296404  31.7018531  19.0274800  25.1316128
  32.7499268  17.7197709  25.9006742  30.8667642  17.0651496  24.9635448
  31.4030999  17.1225113  23.8916891  29.7257653  17.2073107  24.6344662
  31.0491778  15.7032528  25.5288459  31.8075205  15.3837093  26.3970977
  31.4306939  14.9909078  24.6381433  29.9899824  15.2137611  25.8053454
  32.2406505  19.5869114  30.4459207  32.9504100  18.7777360  31.0689902
  32.4032854  20.9124014  30.5707689  31.9125841  21.8284521  30.0209259
  33.3827117  21.4777417  31.4851039  34.4197305  20.9294015  31.2604799
  33.5035018  23.0091067  31.3772152  32.6504463  23.7401114  31.7687320
  34.3405900  23.3262999  32.1724836  34.1476351  23.4846880  30.1258572
  35.4719188  23.1569345  29.8704377  36.3105007  22.6876144  30.5705864
  36.1211974  23.6234377  28.7354460  37.2787871  23.4661321  28.5169533
  35.4042991  24.4329199  27.8562672  35.9625296  24.7306847  26.8505024
  34.0773414  24.7949091  28.1211616  33.8296234  25.8373952  27.6076399
  33.4695122  24.3543807  29.2687732  32.9581126  25.3092901  29.7644672
  33.1401702  21.0958262  32.9520999  34.0937626  20.9177677  33.6968950
  31.8940211  20.9994033  33.3513605  30.9771522  20.6804688  32.6787624
  31.5695257  20.6813531  34.7530666  32.5016813  20.7234143  35.4992071
  30.3366917  21.4504930  35.2088484  29.3359639  21.2284175  34.6104193
  30.0961188  21.0831180  36.3150429  30.5750216  22.9678092  35.3069014
  30.9303630  23.4674023  34.2895022  29.2809506  23.6146313  35.7447285
  29.0893374  23.3502726  36.8982157  28.2183504  23.4528002  35.2218733
  29.3434388  24.8085832  35.8422936  31.7239362  23.3127086  36.2306442
  31.7978068  24.4958339  36.4316512  31.6292278  22.8829087  37.3448804
  32.8708376  23.1183551  35.9391979  31.3306330  19.1931845  34.9515470
  31.1415782  18.7751896  36.0754476  31.4047290  18.4012304  33.8887505
  32.5049334  18.3090924  33.4280902  31.1702016  16.9492658  33.9566965
  31.9287468  16.5247577  34.7782001  31.3129087  16.1727479  33.0573847
  29.7556536  16.5464074  34.3556101  29.5810281  15.4834270  34.9854716
  28.7584194  17.3758003  34.0121376  28.9239276  18.5199981  33.7724768
  27.3838369  17.2318794  34.4894676  27.1757414  16.1462806  34.9418970
  27.0409827  18.1988036  35.6892732  25.9983161  17.8713281  36.1734252
  27.8187861  18.0738928  36.5877809  26.8545629  19.7024787  35.3134659
  26.7008779  20.0937627  34.1266607  26.8242219  20.5847101  36.3979303
  26.3122340  20.2330359  37.4139617  26.6393681  21.7592813  36.3891220
  26.2967580  17.2681490  33.4310306  25.1209064  17.5577712  33.7699718
  26.6346081  16.8960236  32.1887247  27.6058620  16.2326127  32.0172583
  25.6035397  16.5068415  31.2120168  24.5730625  17.0735886  31.4132444
  26.1456109  16.6077496  29.8001555  27.0675649  15.8628259  29.6560052
  25.3461931  16.1484279  29.0381949  26.1036144  18.0145374  29.2628869
  25.3239933  18.8866122  29.7345886  26.9598654  18.2568885  28.2639844
  27.9403068  17.6091121  28.0921283  26.3238340  18.2450576  27.2567182
  25.0484707  15.0633002  31.4230262  24.0192814  14.7006899  30.8382321
  25.6071669  14.2224968  32.1580624  19.2649783  22.2157177  10.3072877
  17.6932783  21.0429283  24.8319341  41.5453222  22.9559994  28.8283152
  13.8504349  29.7124890  27.6136921  35.9786011  24.6999723  13.3201595
  29.2253351  26.9363564  10.7010359   9.7236878  31.0297983   5.3433979
   6.6018157  16.0146377   9.8738311  42.3006355  32.1344342  29.3501599
   5.9128841  10.4699173  37.0889230  43.4437123   9.7409581  22.3313418
   9.9049132  34.6983617  28.9170001  28.9166194  48.5696106  20.5780899
  34.6356076   3.7533281  12.7360131  33.2206756  48.6309115  23.8476414
  21.8541514  16.6898406  47.8234009  20.6682116  36.0918847  49.0191947
  20.3333484  36.7695768  48.5836169  21.1808986  35.7024158  48.4308818
  20.6947697  36.1343425  48.8678738  19.3864940  25.6117428  52.7138276
  20.0845104  25.7905556  53.2059740  19.7017272  25.0887768  52.0908666
  19.5360277  25.5611201  52.6940287  23.1762211  30.3515055  49.6548837
  23.0913507  31.2076021  49.7998406  23.6646595  30.0759379  50.3230996
  23.2351109  30.4372376  49.7750919  24.1080645  26.9699849  51.1546572
  23.5792116  27.1859482  51.8143879  24.6305665  27.6635987  51.0747542
  24.1069098  27.1042986  51.2402172  15.9980252  30.8663066  49.9554040
  15.4137468  31.3713097  50.3619904  15.5950348  30.6405453  49.2150632
  15.8519556  30.9071314  49.9059066  20.4557467  27.1128718  48.4322961
  20.6953471  27.3206702  47.6198304  20.7773308  26.3086227  48.5411905
  20.5394625  27.0242819  48.3283514  13.6666849  24.7266605  47.4883085
  12.9525026  24.4404785  47.9005517  14.1510818  25.0663231  48.1289472
  13.6326212  24.7348255  47.6438720  20.8414167  33.2296559  47.8644893
  21.2565315  32.8981583  47.1729389  20.0106096  32.9965461  47.7365030
  20.7802175  33.1467815  47.7435740  23.5347557  29.4807119  47.0506095
  23.4527719  29.5509306  47.9161081  24.1727277  30.0436862  46.8589835
  23.6167394  29.5746090  47.1496044  20.6387667  29.5027573  50.0614701
  21.4528306  29.7942466  49.9497472  20.5746808  28.8487435  49.4872994
  20.7490406  29.4492768  49.9603538  17.1498390  28.1951380  49.5261902
  17.5343543  27.9759087  50.2778448  16.9010011  29.0214325  49.6562979
  17.1700463  28.2849526  49.6562979  17.2341321  30.3204786  53.6274096
  17.0384104  30.9279521  53.0334399  17.4575667  29.6272730  53.1465770
  17.2375962  30.3082312  53.4690176  22.0763689  32.7189373  45.4030506
  22.8436674  32.7789498  44.9936358  21.6294998  32.1469814  44.9186825
  22.1237116  32.6425949  45.2708216  20.6116312  28.9303932  52.8884830
  21.1531858  28.4274313  53.3523451  20.9262871  28.8769127  52.0774315
  20.7380709  28.8483353  52.8368642  18.7802762  34.3221284  50.1724858
  18.8495582  33.4635822  50.3117859  19.5591217  34.5393164  49.8443883
  18.9055612  34.2274148  50.1442015  18.1238290  28.9908139  46.8667616
  18.4130814  29.7673022  47.1411191  18.2110089  28.4796871  47.5682116
  18.1792546  29.0300057  47.0110114  18.0008533  27.9179374  52.1601630
  18.7450578  28.3053651  52.3984580  18.1469229  27.0736800  52.3242118
  18.1319118  27.8509847  52.2195600  22.9169909  24.3841402  51.1221303
  22.3892927  24.4670146  50.4327012  23.3765617  25.1259274  51.1185948
  22.9071759  24.5062065  51.0195998  14.9102974  22.6543922  46.1462198
  14.5615778  23.3063647  46.6093748  14.4299420  22.6401035  45.4186070
  14.7873218  22.7486975  46.1073290  15.3127105  26.1469563  48.9880820
  15.9472184  26.7429988  48.9230282  15.3952716  25.8473021  49.8026690
  15.4183656  26.1910471  49.0983906  16.8906088  22.0783539  48.9626262
  17.2121929  21.5986621  48.3085524  17.1533031  22.8883185  48.7717073
  16.9772113  22.1273437  48.8381754  19.9517199  24.0191663  50.4616926
  19.3582038  24.3408659  49.9101493  19.9892477  23.1732758  50.2538032
  19.8691588  23.9415991  50.3499697  17.9246431  24.6588913  48.5546256
  18.3045396  24.6768542  47.7697370  17.1839027  25.1042902  48.4337103
  17.8715269  24.7270688  48.4209824  18.7231185  31.4966419  49.9455046
  17.9142508  31.1733093  49.8988355  19.2306094  30.7899641  49.8783294
  18.6780852  31.3447736  49.9285340  27.3267155   3.9833240  40.0056284
  27.2961160   4.8377876  40.1774554  27.9248504   3.6828532  40.5642428
  27.4104313   4.0649736  40.1131087  14.9107980  12.6071609  40.5246446
  14.1590879  12.2287147  40.2962491  15.3593992  12.6390042  39.7765257
  14.8657647  12.5557216  40.3803948  20.3632940  13.0296978  35.9531993
  20.0284308  13.7073900  35.5176216  20.8759810  12.6402289  35.3648865
  20.3898521  13.0721556  35.8018785  19.9037231  14.9811247  41.8943105
  20.2876610  15.5498145  41.3547880  19.8396372  14.2560757  41.4148921
  19.9510658  14.9586710  41.7436968  16.4892736  12.6190001  42.7909219
  16.5903099  11.8090355  43.1006347  15.8934481  12.5246947  42.1608897
  16.4165275  12.4855029  42.7435457  25.1483730   6.5585542  38.2774594
  25.0323256   7.3093228  38.7066732  25.9439617   6.3009495  38.5270681
  25.2488319   6.6320389  38.3778686  16.3293476  17.5367590  44.1924075
  16.9730931  17.9780754  44.5820233  16.6549731  16.7321016  44.1054334
  16.4725304  17.4832785  44.2369552  17.0314055  10.5479565  39.5643937
  17.3529896  11.0884772  38.9605245  17.6786152   9.9776336  39.6966226
  17.1740111  10.5438740  39.4950972  19.2703699   8.9366005  39.6358115
  19.7097334   8.3283105  40.0812888  19.1208362   8.5573378  38.8643580
  19.3125165   8.7904476  39.5877282  22.8713035   7.2893186  36.5888884
  22.7864330   8.1454153  36.7338453  23.3597419   7.0137510  37.2571043
  22.9301933   7.3750507  36.7090966  23.8031469   3.9077980  38.0886619
  23.2742940   4.1237614  38.7483925  24.3256489   4.6014119  38.0087588
  23.8019922   4.0421117  38.1742218  29.2579522   9.4824285  43.4619664
  28.4277225   9.6934928  43.6253080  29.2088774   8.6561339  43.1861947
  29.1286257   9.3913891  43.4457029  15.6931076   7.8041197  36.8894087
  15.1088292   8.3091228  37.2959951  15.2901172   7.5783584  36.1490679
  15.5470380   7.8449445  36.8399112  20.1508291   4.0506849  35.3663008
  20.3904295   4.2584833  34.5538351  20.4724132   3.2464358  35.4751952
  20.2345449   3.9620950  35.2623561  26.5143837  10.1523639  43.5984379
  26.0779069  10.1560381  44.3543351  26.1806752  10.8329138  43.1663957
  26.4006457  10.2536095  43.6465212  13.3617673   1.6644736  34.4223132
  12.6475850   1.3782916  34.8345564  13.8461641   2.0041362  35.0629519
  13.3277036   1.6726386  34.5778767  29.6488183   6.8704559  42.4904017
  30.3104617   6.3095227  42.3899925  29.0079595   6.3756590  42.8156708
  29.6517050   6.7140968  42.5236357  20.5364991  10.1674690  34.7984940
  20.9516139   9.8359714  34.1069436  19.7056920   9.9343593  34.6705077
  20.4752999  10.0845946  34.6775787  25.9353014   7.8869941  42.2316005
  26.1708603   8.0315140  41.4042856  26.0842577   8.6512349  42.6247519
  25.9918817   8.0208996  42.1679609  27.7643470   6.7271607  40.0685609
  28.0951687   7.2599247  39.4625704  28.3376559   6.7810495  40.7247560
  27.8977150   6.8141176  40.0763391  22.9775360   4.5736510  40.7509189
  23.0722214   5.3125804  41.2048815  22.3534203   4.1453985  41.1843754
  22.8984390   4.6197831  40.8817337  23.2298381   6.4185250  33.9846141
  23.1478543   6.4887437  34.8501128  23.8678101   6.9814994  33.7929882
  23.3118218   6.5124221  34.0836091  28.8722822   1.9682104  41.5725771
  28.6159387   1.1562046  41.3823654  29.7152136   1.9759671  41.3455958
  28.9588847   1.8494102  41.5110588  20.3338491   6.4405704  36.9954748
  21.1479130   6.7320597  36.8837519  20.2697632   5.7865566  36.4213041
  20.4441230   6.3870899  36.8943585  16.2046399   9.9127221  42.1227060
  16.8420346   9.6738969  42.6678853  16.6301471  10.1164380  41.3880220
  16.3622566   9.9078232  42.0944217  16.8449214   5.1329511  36.4601949
  17.2294367   4.9137218  37.2118494  16.5960835   5.9592457  36.5903026
  16.8651287   5.2227658  36.5903026  17.1272457  13.3534387  38.5334320
  17.4170755  12.9623368  37.8093546  17.8575938  13.5351092  38.9739595
  17.2779341  13.3228201  38.4917127  31.0644811   4.3213536  45.0727557
  31.6152733   3.6881605  45.3124649  31.0488927   4.8528929  45.7643061
  31.1430008   4.3062484  45.2106415  15.0678373  15.3301770  41.5994469
  14.8478668  15.0399124  42.3921136  14.8472895  14.6716725  41.0712382
  15.0025967  15.1901478  41.6383378  17.2346328  16.7031160  40.3825162
  17.8870386  16.1707602  40.6116188  16.5371937  16.3499812  40.7693036
  17.2277046  16.5720683  40.4737329  14.1827593   9.0570337  39.7892536
  14.9373561   9.4383376  40.0027998  13.5898206   9.5081481  40.2439232
  14.2064307   9.1799165  39.8875414  25.2286247   9.0235574  39.7256141
  25.7944279   9.6828783  39.6414684  24.5814150   9.3685272  40.1972543
  25.2165003   9.1717515  39.7828897  21.6992825  11.9674358  39.1493220
  21.4579501  11.2342218  38.7420285  21.8794158  12.5161215  38.4959553
  21.6900449  11.9396749  38.9923443  16.9292145   7.2582918  40.5614142
  16.7334928   7.8657652  39.9674445  17.1526491   6.5650862  40.0805816
  16.9326786   7.2460443  40.4030223  27.1621707   5.6869441  43.3452937
  27.0755681   5.8424867  44.1987716  26.7072187   6.3307517  42.9712342
  27.0824963   5.8045196  43.4160044  24.9295572   9.7163547  45.7565278
  24.7909931  10.4144593  46.2614021  24.1495570   9.5612204  45.4001460
  24.7938799   9.7963714  45.7791552  26.4248944   9.0741801  36.5181777
  26.0455753   8.2878939  36.5111067  25.7615190   9.6228658  36.3753422
  26.2707419   9.0386625  36.4962574  19.2495853  12.6255320  40.3570604
  20.0145744  12.3564964  40.0353268  19.1473943  12.1405331  41.0740666
  19.3477348  12.5144885  40.4150431  21.7714513   9.6567504  32.3370553
  22.5387498   9.7167629  31.9276405  21.3245822   9.0847945  31.8526872
  21.8187940   9.5804080  32.2048263  24.6709043  11.3187292  36.8533463
  24.7528881  12.1254278  36.5294914  25.1558785  11.3383251  37.5774237
  24.7546201  11.4407955  36.9120362  20.3067136   5.8682063  39.8224877
  20.8482682   5.3652444  40.2863498  20.6213695   5.8147258  39.0114362
  20.4331533   5.7861484  39.7708689  18.4753586  11.2599415  37.1064905
  18.5446406  10.4013953  37.2457905  19.2542041  11.4771296  36.7783930
  18.6006436  11.1652279  37.0782062  22.8661073  13.6837116  41.3201398
  22.4740865  13.3803831  40.6024264  23.0214146  14.5206206  41.1306352
  22.8314663  13.7620953  41.1857895  23.0300748  10.2487105  41.2607429
  22.6715403  10.4201748  42.0371461  22.5439459  10.7100310  40.7035427
  22.9059445  10.3426076  41.2932698  17.8189114   5.9286270  33.8007663
  18.1081638   6.7051153  34.0751237  17.9060912   5.4175002  34.5022163
  17.8743370   5.9678189  33.9450161  23.6351379  13.0872609  44.7531433
  23.4371067  13.5763423  44.0587644  23.0139090  13.2913850  45.3315566
  23.5138943  13.1889147  44.7354656  17.6959357   4.8557506  39.0941677
  18.4401402   5.2431782  39.3324627  17.8420053   4.0114931  39.2582165
  17.8269942   4.7887978  39.1535647  22.6120733   1.3219533  38.0561350
  22.0843751   1.4048277  37.3667059  23.0716441   2.0637405  38.0525995
  22.6022583   1.4440196  37.9536045  14.6053798  -0.4077947  33.0802245
  14.2566602   0.2441778  33.5433795  14.1250244  -0.4220834  32.3526116
  14.4824042  -0.3134893  33.0413336  22.1657815   9.8923097  37.1871007
  22.8892014  10.3581210  37.0435580  21.7258406   9.9596707  36.4368604
  22.2073507   9.9706934  37.0555788  15.0077929   3.0847694  35.9220867
  15.6423008   3.6808120  35.8570328  15.0903540   2.7851152  36.7366737
  15.1134480   3.1288603  36.0323953  16.5856912  -0.9838330  35.8966309
  16.9072753  -1.4635248  35.2425571  16.8483855  -0.1738684  35.7057120
  16.6722937  -0.9348432  35.7721801  22.4261665  13.9543802  37.3469068
  21.7090974  13.7804664  36.8816306  23.0768402  13.7196374  36.8144554
  22.4163515  13.8939594  37.1998286  25.0109636   2.8308390  41.0910373
  24.3400826   3.3738093  40.9623439  25.7049386   3.3003246  40.8492068
  25.0138503   2.9806662  41.0365901  17.7074827  15.1905561  43.7759216
  17.2935225  14.5279691  43.3863058  18.3922201  15.3383419  43.2554910
  17.7473198  15.1146219  43.6415713  21.0740121  14.3495646  44.5282833
  20.6756404  14.4597916  43.7603653  20.4591340  14.5577712  45.1109393
  20.9239010  14.3969214  44.5014132  19.6468023   0.9569794  37.3956972
  19.0532862   1.2786790  36.8441539  19.6843300   0.1110889  37.1878079
  19.5642412   0.8794122  37.2839744  28.8081963   8.9247613  37.9125923
  29.1915569   9.6738969  38.1424020  28.0126077   9.1713432  37.6537912
  28.7475746   9.0717306  37.9083497  17.6197255   1.5967044  35.4886302
  17.9996220   1.6146673  34.7037417  16.8789851   2.0421033  35.3677150
  17.5666093   1.6648819  35.3549871  18.4182009   8.4344551  36.8795092
  17.6093332   8.1111224  36.8328402  18.9256918   7.7277773  36.8123341
  18.3731676   8.2825867  36.8625387  21.6253816  11.0484689  43.7476374
  22.0964994  11.7624952  43.9166359  21.9613994  10.4483439  44.2836244
  21.7448931  11.0656153  43.8508750  38.2999739  19.5018548  40.0056284
  38.2693743  20.3563184  40.1774554  38.8981088  19.2013840  40.5642428
  38.3836897  19.5835044  40.1131087  31.4999424  18.5894199  44.7609215
  30.6437319  18.7502697  44.8118332  31.5467077  17.7186263  44.7814276
  31.3798535  18.4845000  44.7715281  25.8840563  28.1256916  40.5246446
  25.1323463  27.7472455  40.2962491  26.3326575  28.1575350  39.7765257
  25.8390230  28.0742524  40.3803948  31.3365523  28.5482286  35.9531993
  31.0016892  29.2259208  35.5176216  31.8492394  28.1587597  35.3648865
  31.3631104  28.5906864  35.8018785  30.8769815  30.4996555  41.8943105
  31.2609194  31.0683453  41.3547880  30.8128956  29.7746065  41.4148921
  30.9243242  30.4772018  41.7436968  34.3451245  20.6486243  47.4040866
  34.8907205  21.3271329  47.4634836  34.2868121  20.5073703  46.5442448
  34.4167159  20.7278244  47.2852927  27.4625320  28.1375309  42.7909219
  27.5635683  27.3275663  43.1006347  26.8667065  28.0432255  42.1608897
  27.3897858  28.0040337  42.7435457  36.1216313  22.0770850  38.2774594
  36.0055839  22.8278536  38.7066732  36.9172200  21.8194803  38.5270681
  36.2220903  22.1505697  38.3778686  27.3026059  33.0552898  44.1924075
  27.9463515  33.4966062  44.5820233  27.6282315  32.2506324  44.1054334
  27.4457888  33.0018093  44.2369552  20.6590364  24.1595595  42.4161552
  20.4240548  23.3263248  42.3093821  20.7976005  24.4400261  41.6022753
  20.6446026  24.0779099  42.2803907  22.9580451  16.3281326  45.3145860
  22.3385483  15.7373973  45.1455875  22.8564315  16.9192761  44.6810183
  22.8518127  16.3285408  45.1950850  28.0046639  26.0664873  39.5643937
  28.3262480  26.6070080  38.9605245  28.6518735  25.4961644  39.6966226
  28.1472694  26.0624048  39.4950972  30.0548347  18.0680868  39.6478323
  30.7528512  18.2468995  40.1399787  30.3700680  17.5451207  39.0248713
  30.2043684  18.0174640  39.6280333  22.6849584  19.8733608  47.5589429
  22.5608281  20.4596053  48.1939248  23.3367869  19.3793803  47.8601704
  22.7623234  19.8872412  47.6975358  27.7107925  23.0495324  46.8376940
  28.3556928  22.5567768  46.5187889  27.9509702  23.1920111  47.6643019
  27.8418511  22.9972767  46.9126473  30.2494017  25.8950230  46.4883833
  30.5317260  25.1001636  46.2670589  30.9780177  26.3730818  46.5088894
  30.3983580  25.8484827  46.4586848  28.2275211  13.4373264  43.7299598
  27.8978541  13.8884408  43.0603297  27.5520212  13.3589428  44.2772604
  28.0785647  13.4924399  43.7122821  35.4351618   9.4258787  41.9749209
  35.1205059  10.1162266  42.4069631  34.9178560   9.3703569  41.2734709
  35.3116089   9.5193676  41.9346158  34.7764052  19.4263288  38.0886619
  34.2475524  19.6422922  38.7483925  35.2989072  20.1199427  38.0087588
  34.7752505  19.5606425  38.1742218  40.2312105  25.0009593  43.4619664
  39.4009808  25.2120236  43.6253080  40.1821357  24.1746647  43.1861947
  40.1018841  24.9099199  43.4457029  22.2207689  29.0381266  43.6917759
  21.7375267  29.7631756  43.6677342  23.0331007  29.3357396  43.8027916
  22.2698436  29.1883620  43.7045038  28.2921843  27.8313447  46.2967573
  27.7748784  27.4720862  45.6928881  28.9896234  27.3075621  46.3073639
  28.3187424  27.7011135  46.2097832  26.4331165  11.4985553  39.2122546
  27.1877133  11.8663870  38.9739596  26.2558699  11.8725107  39.9801725
  26.5185643  11.6083741  39.2907434  25.0751886  29.5537442  43.8438038
  25.7772465  29.0389431  43.9010795  24.9949369  29.8811593  44.6484914
  25.1675646  29.5251668  43.9710831  39.7266063  17.6479993  47.2570085
  38.8894484  17.7182180  47.4917679  39.6954294  17.6504488  46.3844387
  39.5984346  17.6590220  47.1629633  24.7888229  13.9055872  35.9100659
  24.6063803  14.1227752  35.0841651  25.6513842  14.0194884  35.9659273
  24.8892819  13.9545770  35.7955146  24.4002661  25.7443794  43.3523647
  25.2391561  25.9766727  43.3997408  24.4314430  24.8748105  43.2830682
  24.5284379  25.6500740  43.3488291  25.0255364  26.1644669  47.6536952
  25.5653589  26.0215800  48.3240324  24.3425311  26.5641420  48.0220978
  25.0047518  26.2024340  47.8071374  30.4687949  10.9082282  38.9449682
  31.1974109  10.7298237  38.4987839  30.5582841  11.7500362  39.1556861
  30.5894611  11.0066161  38.9103200  34.4496249  21.8435670  42.8481976
  35.2053764  22.2767184  42.8870885  34.5558574  21.1940439  43.4216612
  34.5766420  21.8113154  42.9380002  37.4876420  25.6708947  43.5984379
  37.0511652  25.6745689  44.3543351  37.1539336  26.3514446  43.1663957
  37.3739040  25.7721403  43.6465212  20.4292509  22.3844960  47.8071374
  20.1630925  21.5684077  47.9662364  20.4431074  22.4298115  46.9366889
  20.3917232  22.2701865  47.7024856  37.4073903  12.7122775  45.8413807
  38.0499812  12.7820879  46.4275723  37.6596924  12.0451998  45.3393349
  37.5396035  12.6249123  45.8541087  40.6220767  22.3889867  42.4904017
  41.2837201  21.8280535  42.3899925  39.9812179  21.8941898  42.8156708
  40.6249634  22.2326276  42.5236357  20.8385923  23.1703739  45.0883118
  20.6561496  23.1450625  44.2355410  21.5735592  23.6402677  45.1272027
  20.9199987  23.2365102  44.9681036  36.9085597  23.4055249  42.2316005
  37.1441186  23.5500448  41.4042856  37.0575161  24.1697657  42.6247519
  36.9651401  23.5394304  42.1679609  38.7376054  22.2456915  40.0685609
  39.0684271  22.7784555  39.4625704  39.3109142  22.2995803  40.7247560
  38.8709733  22.3326484  40.0763391  33.9507943  20.0921818  40.7509189
  34.0454797  20.8311112  41.2048815  33.3266787  19.6639293  41.1843754
  33.8716973  20.1383138  40.8817337  32.2060417  23.2708030  51.3999470
  32.7799279  22.6335275  51.5548034  32.1275221  23.2712113  50.5309128
  32.2793652  23.1773142  51.2945881  20.8056833  20.0497240  45.2382184
  21.3830336  19.9133691  45.8774430  20.1070895  19.5933024  45.4927769
  20.7877855  19.9619506  45.3704474  27.5624136  21.7031296  43.4520668
  27.3043380  20.8703030  43.4251967  27.6172618  21.9288909  42.6113168
  27.5323913  21.6129067  43.3240804  32.6425186  13.8059746  43.5524760
  31.9381512  13.3168932  43.7108679  32.6910160  13.8182221  42.6813205
  32.5455237  13.7349394  43.4464100  26.5358848  19.2569058  43.9385562
  25.9608439  19.4161226  44.5749523  26.1594524  18.6204467  43.4754013
  26.3961660  19.1866871  43.9640121  30.2032136  17.7292407  48.7977941
  29.8146569  17.3046625  48.1430132  29.5386835  17.9774557  49.3054967
  30.0479064  17.7031128  48.7765809  39.8455405  17.4867412  41.5725771
  39.5891970  16.6747354  41.3823654  40.6884719  17.4944979  41.3455958
  39.9321431  17.3679410  41.5110588  16.2815667  18.9009133  41.9530003
  16.3675918  18.5241001  42.7343533  16.9091464  18.5269578  41.4749961
  16.3872218  18.7894615  41.9975480  34.0258498  11.4267036  46.3101925
  34.4069010  10.7445207  46.6969799  33.2221782  11.1376638  46.1277589
  33.9634960  11.2834085  46.3405981  27.1778983  25.4312529  42.1227060
  27.8152930  25.1924277  42.6678853  27.6034054  25.6349688  41.3880220
  27.3355149  25.4263540  42.0944217  21.8691625  27.6700866  46.0061364
  21.9095771  27.9415717  45.1781143  22.4286149  28.1942774  46.4219152
  21.9574971  27.7876621  45.9453252  38.5516985  24.4261457  47.4712618
  38.2462802  25.1589514  47.8325934  37.8323201  24.0199386  47.1905404
  38.4004328  24.4743190  47.4825755  29.5600455  25.9084952  43.8020846
  29.6339463  25.7460124  44.6562696  30.3769961  26.0975142  43.5581328
  29.6916813  25.9121694  43.8918872  23.3206212  26.2542815  40.8315290
  22.4944329  26.5004552  40.7049568  23.3818203  26.1754896  41.6977348
  23.2080378  26.2787764  40.9404234  25.5382235  12.3211756  41.7910730
  24.6704661  12.3934355  41.8568339  25.8257440  13.1233835  41.9798705
  25.4521983  12.4505903  41.8285496  28.1005041  28.8719695  38.5334320
  28.3903339  28.4808676  37.8093546  28.8308521  29.0536400  38.9739595
  28.2511925  28.8413509  38.4917127  42.0377395  19.8398844  45.0727557
  42.5885316  19.2066913  45.3124649  42.0221510  20.3714237  45.7643061
  42.1162591  19.8247792  45.2106415  28.6899786  23.6737441  49.6187450
  28.1911479  24.3853209  49.6972338  29.5000010  23.9938108  49.5805612
  28.7355892  23.8264290  49.6244019  26.0410956  30.8487078  41.5994469
  25.8211252  30.5584432  42.3921136  25.8205478  30.1902033  41.0712382
  25.9758550  30.7086786  41.6383378  24.9527903  22.9360394  43.8650171
  24.6641152  22.3097865  44.3995898  25.8211251  22.8780681  43.9314851
  25.0388155  22.8347938  43.9541125  35.7405801  18.0795177  44.1832153
  35.3970567  17.3585513  44.5339402  35.8398844  17.8709029  43.3410511
  35.7047844  17.9419381  44.1103833  28.2078912  32.2216467  40.3825162
  28.8602970  31.6892910  40.6116188  27.5104521  31.8685120  40.7693036
  28.2009630  32.0905990  40.4737329  25.1560177  24.5755645  39.7892536
  25.9106145  24.9568684  40.0027998  24.5630789  25.0266789  40.2439232
  25.1796890  24.6984472  39.8875414  36.2018830  24.5420881  39.7256141
  36.7676863  25.2014091  39.6414684  35.5546734  24.8870580  40.1972543
  36.1897587  24.6902823  39.7828897  26.4758403  25.7464206  45.1632651
  25.9539157  25.8864498  45.8484516  26.8632424  24.9874871  45.3534769
  26.4562104  25.6549730  45.2933728  23.4649587  15.7970015  39.2327606
  23.1774383  15.4271286  38.4959553  24.1520056  16.2664870  38.9711311
  23.5238485  15.8116985  39.0842682  32.6725408  27.4859666  39.1493220
  32.4312084  26.7527526  38.7420285  32.8526741  28.0346523  38.4959553
  32.6633032  27.4582057  38.9923443  27.9024729  22.7768225  40.5614142
  27.7067512  23.3842960  39.9674445  28.1259074  22.0836169  40.0805816
  27.9059370  22.7645751  40.4030223  26.3003259  19.6622963  40.6795011
  27.0225911  19.8264121  40.2198817  25.8211252  20.3832628  40.5734350
  26.3366990  19.7921193  40.5960625  34.2596767  15.9986762  46.0591696
  33.4207867  16.0248041  45.8229959  34.3301134  16.6457498  46.6397042
  34.1465160  16.0982888  46.1100813  23.9510876  22.0681036  49.7849151
  24.4631973  22.3465289  49.1357910  23.6647218  22.8070330  50.1511964
  23.9845739  22.2183389  49.7439029  32.7066045  12.8972139  40.7919312
  33.4092398  12.6979887  40.3139270  32.4410234  12.1248082  41.0988155
  32.7712677  12.7535105  40.7664753  38.1354290  21.2054749  43.3452937
  38.0488265  21.3610175  44.1987716  37.6804770  21.8492824  42.9712342
  38.0557547  21.3230504  43.4160044  21.0377782  16.5751228  40.0812887
  21.1393918  17.3777389  40.4093863  21.8333669  16.3738564  39.7835968
  21.1705688  16.6637126  40.0848242  32.0080106  18.5265496  41.9678497
  31.7614821  18.4461247  42.8015286  32.3365229  17.7418964  41.7741024
  32.0201350  18.3991761  42.0626020  35.9028155  25.2348855  45.7565278
  35.7642515  25.9329901  46.2614021  35.1228153  25.0797512  45.4001460
  35.7671382  25.3149022  45.7791552  34.2406240  21.5345231  52.0087660
  34.2354279  20.6625047  52.0130086  34.9467234  21.7333400  51.5357116
  34.3451244  21.4349105  51.9394695  27.9677134  21.2622215  51.3801480
  28.1120509  21.8423423  50.7444590  28.3152782  21.6398511  52.0851335
  28.0404595  21.4042919  51.3900475  30.1397051  20.4612383  49.1626612
  29.3920365  20.6543397  48.7574890  30.2938576  19.6357603  48.9250733
  30.0519479  20.3677494  49.0672017  27.0404889  29.4524986  48.2462507
  27.1894452  28.8927902  47.5935911  27.8204891  29.5316988  48.6295026
  27.1778982  29.3810552  48.2059456  37.3981528  24.5927109  36.5181777
  37.0188337  23.8064247  36.5111067  36.7347773  25.1413966  36.3753422
  37.2440003  24.5571933  36.4962574  34.8526154   7.5352809  43.9215858
  34.9709722   7.9929272  43.1883161  34.6788330   6.7298070  43.6352076
  34.8445325   7.4846581  43.7716792  30.2228436  28.1440628  40.3570604
  30.9878327  27.8750272  40.0353268  30.1206526  27.6590639  41.0740666
  30.3209932  28.0330193  40.4150431  28.2581206  16.3465038  46.8963839
  27.4677281  16.1656498  47.2181175  28.6541829  15.5691990  46.8794134
  28.1998082  16.2052499  46.9416388  33.6424892  23.9807468  44.6223285
  32.9669894  23.7492700  45.1236672  33.6517268  23.3728651  43.9965390
  33.5443397  23.8566393  44.6039438  30.7719036  18.8225297  51.3787338
  30.7078177  19.6835253  51.2507475  30.9116224  18.5057290  50.5782890
  30.7834506  18.9025463  51.2415551  35.6441627  26.8372600  36.8533463
  35.7261464  27.6439586  36.5294914  36.1291369  26.8568559  37.5774237
  35.7278785  26.9593263  36.9120362  29.4538130  21.5157436  45.5203541
  29.0300379  21.7161935  44.7842560  29.2782985  20.6686284  45.6327841
  29.3649011  21.4206218  45.4277231  24.7420575  22.0109488  40.9531514
  24.8985194  21.9456290  41.8087506  25.0821168  22.7858040  40.7410193
  24.8153810  22.1158686  41.0486108  32.4288989  16.2803676  49.8747177
  32.6430959  15.6414590  49.3210531  31.8122888  16.7249499  49.4455039
  32.3694318  16.2513819  49.7297608  33.8393657  29.2022424  41.3201398
  33.4473449  28.8989139  40.6024264  33.9946729  30.0391514  41.1306352
  33.8047247  29.2806261  41.1857895  21.3154837  19.1944438  41.2692281
  21.6953801  19.6128983  40.6052548  20.7410201  19.7757894  41.5761124
  21.2866161  19.3422297  41.2169022  34.5928077  17.8892741  50.8130484
  33.7804759  17.5818631  50.8943657  35.0518012  17.4091741  51.3773197
  34.5408462  17.7729233  50.9085079  34.0033332  25.7672413  41.2607429
  33.6447987  25.9387056  42.0371461  33.5172043  26.2285618  40.7035427
  33.8792029  25.8611384  41.2932698  31.8203718   9.3903611  44.8634520
  30.9497276   9.3642332  44.8167830  32.0744059   9.2180803  44.0460366
  31.7297278   9.3613755  44.7354657  28.8452858  11.4009840  46.3207991
  28.3291347  10.7090031  46.4459570  28.2846787  12.0680617  46.2670589
  28.6859372  11.3973097  46.3314057  30.9145092  11.9402800  48.1500843
  30.5276845  11.9651831  48.9314373  30.4278029  11.3744478  47.6975360
  30.7857601  11.8598551  48.1988747  36.8895071  18.5065455  46.7740545
  36.4622679  18.4191803  46.0188645  36.2521124  18.6143230  47.3595389
  36.7324678  18.5098115  46.7485987  24.9585638  20.7604843  45.9007775
  24.1173645  20.6608717  46.1086669  25.1675646  21.5300323  46.2522096
  24.8650331  20.8596886  45.9835090  22.4361205  18.3824380  43.7292526
  22.0417903  18.4567392  42.9542636  21.8801322  18.7682326  44.2800888
  22.2964017  18.4506154  43.6960186  34.0726152  11.3605674  43.4096405
  34.2775745  11.2927982  44.2553402  33.7452576  12.1664495  43.3417582
  34.0541400  11.4691614  43.5256060  28.7702303  18.6886242  45.1505373
  28.4665441  18.1342230  45.7515780  28.0681724  18.8678452  44.6633407
  28.6218513  18.6331024  45.1675078  27.8268400  15.9986762  39.7150075
  28.1028134  15.2805674  39.3027642  28.4267069  16.5971682  39.5071181
  27.9561665  15.9807132  39.6230836  26.8320654  25.9035963  49.8577471
  26.7241009  25.9138025  50.7239529  27.0416436  26.7290743  49.6682424
  26.8470765  26.0277037  49.9581562  37.3259840  11.9137438  42.8899170
  36.7134153  12.4007840  43.2752902  37.4224015  11.2380929  43.4336822
  37.2497737  11.8855747  43.0278029  31.3278921  13.6700279  37.9896670
  31.7822667  13.8410840  38.7144514  31.8018966  13.0568390  37.5894445
  31.4647241  13.6051164  38.0370431  24.8494446  23.1548605  47.3199408
  24.2582379  23.7958103  47.2902423  25.6115470  23.5786222  47.2930708
  24.8742707  23.3124443  47.3114555  25.2455069  14.3150603  47.9867426
  25.7056550  14.3889532  48.7242550  25.2911176  15.1131857  47.6367247
  25.3205624  14.4444750  48.0440182  34.6083962  28.6057917  44.7531433
  34.4103651  29.0948731  44.0587644  33.9871673  28.8099158  45.3315566
  34.4871527  28.7074455  44.7354656  30.5871516  12.1693072  44.1273538
  29.7407561  12.3415880  44.0014888  30.5842649  11.3642416  44.4639367
  30.4618666  12.0754101  44.1584665  31.6569816  15.9468287  44.9935596
  31.1829771  15.4210049  45.5040907  32.0287952  15.3997760  44.4250458
  31.6419705  15.7884283  44.9850743  37.9206547  21.0070662  46.4042377
  37.6804770  20.1677078  46.4084803  38.3998554  21.0870829  47.1283150
  37.9558731  20.8952062  46.5117179  33.5853316  16.8404841  38.0561350
  33.0576335  16.9233585  37.3667059  34.0449024  17.5822713  38.0525995
  33.5755167  16.9625504  37.9536045  39.9211734  17.7872120  44.3571636
  39.6821504  17.7467954  43.5192420  40.0845635  18.6343272  44.4837357
  39.9102038  17.9064205  44.2525118  36.5257764  22.1722069  50.2876681
  37.2491963  21.7194595  50.1087701  36.2607727  22.4526735  49.5049009
  36.5939038  22.1473037  50.1455396  25.3944633  16.7682242  47.0229560
  24.7697703  16.7800634  46.4155513  25.0590227  17.2442418  47.6720800
  25.2530124  16.8400759  47.0286129  22.1070308  24.8282703  48.4633324
  21.5770233  24.1375142  48.5128299  22.3795401  24.8192888  47.6346033
  22.0695030  24.7249834  48.3480740  32.3076554  22.2705947  48.4371696
  31.6933547  21.7263997  48.7320331  32.8243839  21.7570184  47.9577512
  32.2932216  22.1142356  48.4095924  31.5472851  23.3410217  46.1715995
  31.1200459  22.7159936  45.7381430  31.5397795  23.0585139  46.9975002
  31.4831992  23.2062998  46.2295822  24.6635378  18.3775390  49.2404429
  24.8228865  17.6218714  49.6456151  24.4828272  18.9266330  49.8945166
  24.6600737  18.3469204  49.3967135  29.8758561  14.2178972  46.3858529
  29.9001048  13.6839084  45.6971309  30.1270034  13.7096281  47.0484119
  29.9168479  14.0639876  46.3823173  17.3866150  21.5010467  45.8201673
  17.2809599  21.4557311  44.9553757  16.6366370  21.8464247  46.1015958
  17.2601753  21.5451375  45.7339003  26.1559883  12.9449790  45.7664273
  26.1958254  13.4458997  46.4798980  25.3309547  13.0360184  45.4970196
  26.0399409  13.0331606  45.8314811  28.3389496  22.5110530  53.8684568
  27.4885126  22.6482244  54.0042213  28.5017623  21.7774308  54.3132269
  28.2373359  22.4224631  53.9540167  27.5774246  19.4610300  48.0638172
  26.7466176  19.6284118  47.8573420  27.5225763  19.0846251  48.8487057
  27.4463661  19.4300031  48.1486700  38.9593078  21.1348480  48.7907231
  39.5510918  21.7745730  48.8225429  39.3952073  20.4371517  49.0799298
  39.1111509  21.1266830  48.8388063  30.7886468  25.5565852  49.4165125
  30.2811559  26.1101699  49.8605755  30.4913114  25.6174142  48.5983899
  30.6691353  25.6472163  49.3613581  32.9548650  13.9219172  48.2589788
  33.3803722  13.4691698  47.6473314  32.3405643  13.3679242  48.5354575
  32.9277296  13.7733148  48.2094813  22.4863500  20.8000843  39.1910413
  22.9955730  21.3965351  39.5721718  22.9597773  20.5326817  38.5086832
  22.6306876  20.8486659  39.1464935  33.3994248  29.4729110  37.3469068
  32.6823558  29.2989972  36.8816306  34.0500986  29.2381682  36.8144554
  33.3896099  29.4124902  37.1998286  31.3942873  10.3934272  41.6680365
  30.7511191  10.2431918  42.2365503  31.0542280  10.1476617  40.9029469
  31.2487950  10.3346394  41.6383380  35.9842220  18.3493698  41.0910373
  35.3133409  18.8923401  40.9623439  36.6781970  18.8188554  40.8492068
  35.9871087  18.4991970  41.0365901  30.0328953  30.4890410  46.3222132
  29.8094608  29.7309240  46.6906158  29.5438797  30.5188432  45.6002571
  29.9272402  30.3812635  46.2698873  36.1470347  14.8049582  44.0000746
  36.4997957  14.3779305  44.6746545  35.2885149  14.7200426  44.1301823
  36.0719792  14.7294323  44.1195757  24.8454032  17.4357102  42.0583593
  24.1266021  17.8521234  42.3256457  25.2166394  18.0011341  41.5075231
  24.7945964  17.5806383  42.0166400  34.1453613  18.0684951  47.9485589
  34.1251540  17.8868246  48.8020368  34.1932814  18.9396969  47.9245172
  34.1488254  18.1701489  48.0708883  28.6807410  30.7090869  43.7759216
  28.2667809  30.0464999  43.3863058  29.3654784  30.8568727  43.2554910
  28.7205782  30.6331527  43.6415713  32.0472704  29.8680954  44.5282833
  31.6488988  29.9783224  43.7603653  31.4323924  30.0763020  45.1109393
  31.8971594  29.9154522  44.5014132  33.4958423  16.4334606  40.8258723
  33.2672116  16.4567308  39.9837081  33.7556499  15.6092073  40.9453733
  33.5004611  16.3150686  40.7183920  27.7777651  18.2869079  50.4283823
  27.2656554  17.6790262  50.7868854  27.6057148  19.0025672  50.8957799
  27.6767288  18.3032378  50.5500047  26.5503185  14.9711152  42.1212918
  27.0260552  15.3328232  41.4863099  26.0491785  15.6267620  42.4013061
  26.5468544  15.1205341  42.0689659  39.7814547  24.4432920  37.9125923
  40.1648153  25.1924277  38.1424020  38.9858660  24.6898740  37.6537912
  39.7208329  24.5902614  37.9083497  19.5245431  19.6353520  48.3374675
  18.9772150  18.9654166  48.4555543  20.3137809  19.2683368  48.4018142
  19.5597614  19.4818506  48.3643375  36.2215129  15.4234543  41.0761881
  36.2209356  15.2683200  41.9346157  36.0171309  16.2697530  41.0203267
  36.1914907  15.5255164  41.1949820  18.2832400  18.8474328  45.4920698
  18.1054161  18.3950937  46.2175613  17.9951422  19.6500489  45.6759175
  18.2145353  18.8996886  45.6264200  33.9455981  20.1032045  44.7298088
  34.4409646  19.3855040  44.6902108  33.1355757  19.8002843  44.6152575
  33.8999874  19.9529691  44.7071814  20.0204870  21.3802052  42.6042457
  19.1550389  21.3687742  42.4925228  20.1203686  21.1932274  43.4513596
  19.9079037  21.3508113  42.7131401  36.0107800  22.8535733  47.4175217
  36.4362872  22.3310155  46.8645642  35.6464720  23.4516570  46.8963840
  36.0194403  22.8645960  47.2584226  25.6461880  31.1499950  46.1772562
  25.9608439  31.9636339  46.1850344  26.0555293  30.7650169  46.8454721
  25.7529978  31.2128653  46.2776654  32.5986399  26.5669997  43.7476374
  33.0697578  27.2810260  43.9166359  32.9346578  25.9668747  44.2836244
  32.7181515  26.5841461  43.8508750  32.5888250   8.2627794  47.3015562
  31.7834213   8.1525523  47.6183400  32.4594985   8.3640249  46.4445428
  32.4508382   8.2611464  47.2223603  36.0454210  14.4273286  47.8955259
  35.4617199  14.9282492  47.4832826  36.3658504  13.9202842  47.2619582
  36.0067386  14.4265121  47.7413766  28.5849009  13.3413880  38.1713934
  29.4064704  13.5112193  37.9295629  28.1218660  13.4961141  37.4480231
  28.6380172  13.3895613  38.0285578  22.9874900  25.0973059  45.8251171
  23.5919757  25.0568893  45.1964991  22.7802213  25.9444211  45.8555226
  23.0463797  25.2161061  45.7367287  32.8018672  27.3639004  47.0413408
  33.6217046  27.2201970  47.3029703  32.5212750  27.9885203  47.5829846
  32.8815415  27.4349356  47.1601347  18.2226182  24.0807676  45.6950094
  18.1250460  23.2703948  46.0040150  19.0055052  24.0599470  45.3096362
  18.3242319  23.9574766  45.6836957  42.3098107  44.0667594  35.9531993
  41.9749475  44.7444515  35.5176216  42.8224977  43.6772905  35.3648865
  42.3363688  44.1092172  35.8018785  31.6322948  39.6780903  42.4161552
  31.3973132  38.8448555  42.3093821  31.7708588  39.9585569  41.6022753
  31.6178610  39.5964407  42.2803907  33.9313035  31.8466634  45.3145860
  33.3118067  31.2559281  45.1455875  33.8296899  32.4378069  44.6810183
  33.8250710  31.8470716  45.1950850  41.0280931  33.5866176  39.6478323
  41.7261095  33.7654303  40.1399787  41.3433263  33.0636515  39.0248713
  41.1776268  33.5359948  39.6280333  39.2007794  28.9558572  43.7299598
  38.8711124  29.4069716  43.0603297  38.5252796  28.8774736  44.2772604
  39.0518231  29.0109707  43.7122821  44.8178203  38.3263802  36.5888884
  44.7329498  39.1824768  36.7338453  45.3062586  38.0508126  37.2571043
  44.8767100  38.4121123  36.7090966  46.4084202  24.9444095  41.9749209
  46.0937643  25.6347574  42.4069631  45.8911144  24.8888877  41.2734709
  46.2848672  25.0378984  41.9346158  45.7496636  34.9448596  38.0886619
  45.2208107  35.1608230  38.7483925  46.2721656  35.6384734  38.0087588
  45.7485089  35.0791733  38.1742218  37.6396244  38.8411813  36.8894087
  37.0553459  39.3461844  37.2959951  37.2366339  38.6154200  36.1490679
  37.4935547  38.8820061  36.8399112  42.0973458  35.0877465  35.3663008
  42.3369462  35.2955449  34.5538351  42.4189299  34.2834974  35.4751952
  42.1810616  34.9991566  35.2623561  37.4063748  27.0170861  39.2122546
  38.1609716  27.3849178  38.9739596  37.2291283  27.3910415  39.9801725
  37.4918227  27.1269048  39.2907434  35.7620813  29.4241180  35.9100659
  35.5796386  29.6413060  35.0841651  36.6246426  29.5380192  35.9659273
  35.8625402  29.4731077  35.7955146  41.4420532  26.4267590  38.9449682
  42.1706693  26.2483545  38.4987839  41.5315425  27.2685670  39.1556861
  41.5627194  26.5251469  38.9103200  35.3082840  32.7015352  34.4223132
  34.5941017  32.4153532  34.8345564  35.7926809  33.0411978  35.0629519
  35.2742203  32.7097002  34.5778767  42.4830158  41.2045306  34.7984940
  42.8981306  40.8730330  34.1069436  41.6522087  40.9714208  34.6705077
  42.4218167  41.1216562  34.6775787  45.1763548  37.4555866  33.9846141
  45.0943711  37.5258053  34.8501128  45.8143268  38.0185610  33.7929882
  45.2583385  37.5494837  34.0836091  43.6157769  29.3245054  43.5524760
  42.9114096  28.8354240  43.7108679  43.6642744  29.3367529  42.6813205
  43.5187821  29.2534702  43.4464100  27.2548250  34.4194441  41.9530003
  27.3408502  34.0426309  42.7343533  27.8824048  34.0454886  41.4749961
  27.3604801  34.3079923  41.9975480  42.2803658  37.4776320  36.9954748
  43.0944297  37.7691213  36.8837519  42.2162799  36.8236182  36.4213041
  42.3906397  37.4241515  36.8943585  38.7914381  36.1700127  36.4601949
  39.1759534  35.9507834  37.2118494  38.5426002  36.9963073  36.5903026
  38.8116454  36.2598273  36.5903026  36.5114819  27.8397064  41.7910730
  35.6437244  27.9119663  41.8568339  36.7990023  28.6419143  41.9798705
  36.4254567  27.9691211  41.8285496  36.1292760  40.0940953  39.7892536
  36.8838728  40.4753992  40.0027998  35.5363373  40.5452097  40.2439232
  36.1529474  40.2169780  39.8875414  34.4382171  31.3155323  39.2327606
  34.1506967  30.9456594  38.4959553  35.1252639  31.7850178  38.9711311
  34.4971068  31.3302292  39.0842682  38.8757312  38.2953533  40.5614142
  38.6800095  38.9028268  39.9674445  39.0991658  37.6021477  40.0805816
  38.8791954  38.2831059  40.4030223  37.2735842  35.1808271  40.6795011
  37.9958494  35.3449429  40.2198817  36.7943835  35.9017936  40.5734350
  37.3099573  35.3106501  40.5960625  43.6798628  28.4157447  40.7919312
  44.3824981  28.2165195  40.3139270  43.4142817  27.6433389  41.0988155
  43.7445261  28.2720413  40.7664753  32.0110366  32.0936536  40.0812887
  32.1126502  32.8962697  40.4093863  32.8066252  31.8923871  39.7835968
  32.1438271  32.1822434  40.0848242  45.8258738  23.0538117  43.9215858
  45.9442306  23.5114580  43.1883161  45.6520913  22.2483378  43.6352076
  45.8177909  23.0031889  43.7716792  43.7179680  40.6938120  32.3370553
  44.4852665  40.7538245  31.9276405  43.2710989  40.1218561  31.8526872
  43.7653108  40.6174696  32.2048263  35.7153159  37.5294795  40.9531514
  35.8717778  37.4641598  41.8087506  36.0553752  38.3043348  40.7410193
  35.7886394  37.6343994  41.0486108  40.4218753  42.2970031  37.1064905
  40.4911573  41.4384569  37.2457905  41.2007208  42.5141911  36.7783930
  40.5471603  42.2022895  37.0782062  32.2887420  34.7129746  41.2692281
  32.6686385  35.1314291  40.6052548  31.7142785  35.2943202  41.5761124
  32.2598745  34.8607605  41.2169022  42.7936301  24.9088919  44.8634520
  41.9229859  24.8827640  44.8167830  43.0476643  24.7366111  44.0460366
  42.7029861  24.8799063  44.7354657  39.7654281  36.9656886  33.8007663
  40.0546806  37.7421769  34.0751237  39.8526080  36.4545618  34.5022163
  39.8208537  37.0048804  33.9450161  39.8185442  26.9195148  46.3207991
  39.3023930  26.2275339  46.4459570  39.2579371  27.5865925  46.2670589
  39.6591955  26.9158405  46.3314057  33.4093789  33.9009688  43.7292526
  33.0150486  33.9752699  42.9542636  32.8533906  34.2867634  44.2800888
  33.2696601  33.9691462  43.6960186  45.0458735  26.8790982  43.4096405
  45.2508329  26.8113290  44.2553402  44.7185159  27.6849803  43.3417582
  45.0273983  26.9876922  43.5256060  38.8000984  31.5172070  39.7150075
  39.0760718  30.7990982  39.3027642  39.3999653  32.1156990  39.5071181
  38.9294248  31.4992440  39.6230836  42.3011504  29.1885587  37.9896670
  42.7555251  29.3596147  38.7144514  42.7751550  28.5753698  37.5894445
  42.4379824  29.1236472  38.0370431  39.6424524  35.8928121  39.0941677
  40.3866569  36.2802398  39.3324627  39.7885220  35.0485547  39.2582165
  39.7735109  35.8258594  39.1535647  41.5604100  27.6878380  44.1273538
  40.7140145  27.8601188  44.0014888  41.5575232  26.8827724  44.4639367
  41.4351250  27.5939409  44.1584665  44.5585900  32.3590149  38.0561350
  44.0308918  32.4418893  37.3667059  45.0181608  33.1008021  38.0525995
  44.5487750  32.4810812  37.9536045  36.5518965  30.6292669  33.0802245
  36.2031769  31.2812394  33.5433795  36.0715411  30.6149782  32.3526116
  36.4289209  30.7235722  33.0413336  37.1292466  28.4635098  45.7664273
  37.1690838  28.9644305  46.4798980  36.3042131  28.5545492  45.4970196
  37.0131992  28.5516914  45.8314811  36.9242874  33.2551199  38.5928290
  37.0645835  33.7523664  39.2956931  37.4225406  32.5537494  38.7342503
  37.0183954  33.2253178  38.7179869  36.9543096  34.1218310  35.9220867
  37.5888175  34.7178735  35.8570328  37.0368707  33.8221768  36.7366737
  37.0599647  34.1659219  36.0323953  38.5322079  30.0532286  35.8966309
  38.8537920  29.5735368  35.2425571  38.7949023  30.8631932  35.7057120
  38.6188104  30.1022184  35.7721801  33.4596084  36.3186151  39.1910413
  33.9688313  36.9150659  39.5721718  33.9330356  36.0512125  38.5086832
  33.6039460  36.3671967  39.1464935  42.3675457  25.9119580  41.6680365
  41.7243775  25.7617226  42.2365503  42.0274864  25.6661925  40.9029469
  42.2220534  25.8531702  41.6383380  35.8186616  32.9542410  42.0583593
  35.0998605  33.3706542  42.3256457  36.1898978  33.5196648  41.5075231
  35.7678547  33.0991691  42.0166400  41.5933190  31.9940410  37.3956972
  40.9998029  32.3157406  36.8441539  41.6308468  31.1481505  37.1878079
  41.5107579  31.9164738  37.2839744  44.4691007  31.9519914  40.8258723
  44.2404700  31.9752616  39.9837081  44.7289083  31.1277381  40.9453733
  44.4737195  31.8335994  40.7183920  37.5235769  30.4896460  42.1212918
  37.9993135  30.8513540  41.4863099  37.0224369  31.1452928  42.4013061
  37.5201128  30.6390649  42.0689659  39.5662422  32.6337660  35.4886302
  39.9461387  32.6517289  34.7037417  38.8255018  33.0791649  35.3677150
  39.5131260  32.7019435  35.3549871  29.2564984  34.3659636  45.4920698
  29.0786745  33.9136245  46.2175613  28.9684006  35.1685797  45.6759175
  29.1877937  34.4182194  45.6264200  40.3647176  39.4715166  36.8795092
  39.5558499  39.1481840  36.8328402  40.8722085  38.7648388  36.8123341
  40.3196843  39.3196483  36.8625387  30.9937454  36.8987360  42.6042457
  30.1282973  36.8873050  42.4925228  31.0936269  36.7117582  43.4513596
  30.8811621  36.8693421  42.7131401  39.5581593  28.8599188  38.1713934
  40.3797287  29.0297501  37.9295629  39.0951244  29.0146449  37.4480231
  39.6112755  28.9080921  38.0285578  25.5791387   5.0635048  27.4586493
  24.8274287   4.6850586  27.2302538  26.0277399   5.0953481  26.7105303
  25.5341054   5.0120655  27.3143995  31.0316347   5.4860417  22.8872040
  30.6967716   6.1637339  22.4516262  31.5443218   5.0965728  22.2988912
  31.0581928   5.5284995  22.7358832  30.5720639   7.4374686  28.8283152
  30.9560018   8.0061584  28.2887927  30.5079780   6.7124196  28.3488968
  30.6194066   7.4150149  28.6777014  27.1576144   5.0753440  29.7249266
  27.2586507   4.2653794  30.0346393  26.5617889   4.9810386  29.0948944
  27.0848682   4.9418468  29.6775504  26.9976883   9.9931029  31.1264122
  27.6414339  10.4344193  31.5160280  27.3233139   9.1884455  31.0394380
  27.1408712   9.9396224  31.1709599  20.3541188   1.0973726  29.3501599
  20.1191372   0.2641379  29.2433868  20.4926829   1.3778392  28.5362800
  20.3396850   1.0157230  29.2143954  27.6997463   3.0043004  26.4983983
  28.0213304   3.5448211  25.8945291  28.3469559   2.4339775  26.6306273
  27.8423518   3.0002179  26.4291019  29.9444841   2.8328361  33.4223880
  30.2268084   2.0379767  33.2010635  30.6731001   3.3108949  33.4428941
  30.0934404   2.7862958  33.3926895  26.3614484   0.2604636  23.8234134
  25.7771699   0.7654667  24.2299998  25.9584579   0.0347023  23.0830726
  26.2153788   0.3012884  23.7739159  21.9158513   5.9759397  30.6257805
  21.4326091   6.7009887  30.6017389  22.7281831   6.2735527  30.7367963
  21.9649260   6.1261751  30.6385085  27.9872667   4.7691578  33.2307620
  27.4699608   4.4098993  32.6268928  28.6847058   4.2453752  33.2413686
  28.0138248   4.6389266  33.1437879  31.6436259   5.2186392  39.1923793
  31.7319604   5.0312532  40.0402003  32.0725971   4.5723821  38.7928640
  31.7198361   5.0949400  39.2595544  29.2106718   4.5017552  38.1741455
  28.6477553   4.0890162  38.6981116  29.9727742   4.4270458  38.5934598
  29.2401167   4.4294952  38.3134455  24.7702710   6.4915573  30.7778085
  25.4723289   5.9767562  30.8350842  24.6900193   6.8189724  31.5824960
  24.8626470   6.4629799  30.9050877  24.0953485   2.6821925  30.2863693
  24.9342385   2.9144858  30.3337455  24.1265254   1.8126236  30.2170729
  24.2235203   2.5878872  30.2828338  24.7206188   3.1022800  34.5876999
  25.2604413   2.9593931  35.2580371  24.0376135   3.5019551  34.9561025
  24.6998342   3.1402471  34.7411421  31.7556318   4.6495411  41.8567577
  32.5396734   4.7626259  42.2223319  31.5552912   3.8236548  42.0526262
  31.8422343   4.5442130  41.9401963  20.1243333  -0.6776909  34.7411420
  19.8581749  -1.4937792  34.9002411  20.1381897  -0.6323753  33.8706936
  20.0868056  -0.7920004  34.6364902  31.9126711   6.5605513  35.5034032
  31.1141957   6.3205013  35.7607901  32.3612723   6.6119906  36.2501080
  31.8601322   6.5327904  35.6518956  31.2048398   2.6238129  21.7324987
  31.6199547   2.2923153  21.0409482  30.3740328   2.3907032  21.6045123
  31.1436407   2.5409385  21.6115834  20.5336747   0.1081870  32.0223165
  20.3512320   0.0828756  31.1695457  21.2686416   0.5780808  32.0612073
  20.6150811   0.1743233  31.9021083  26.8729807   2.3690661  29.0567107
  27.5103754   2.1302408  29.6018900  27.2984878   2.5727820  28.3220267
  27.0305973   2.3641671  29.0284264  21.5642449   4.6078997  32.9401410
  21.6046594   4.8793848  32.1121190  22.1236973   5.1320905  33.3559198
  21.6525795   4.7254752  32.8793299  29.2551279   2.8463083  30.7360893
  29.3290287   2.6838255  31.5902743  30.0720785   3.0353273  30.4921375
  29.3867637   2.8499826  30.8258919  23.0157035   3.1920946  27.7655336
  22.1895153   3.4382683  27.6389615  23.0769027   3.1133027  28.6317395
  22.9031202   3.2165895  27.8744281  27.7955864   5.8097826  25.4674366
  28.0854163   5.4186808  24.7433593  28.5259345   5.9914531  25.9079642
  27.9462749   5.7791640  25.4257173  28.3850610   0.6115572  36.5527497
  27.8862303   1.3231340  36.6312385  29.1950834   0.9316239  36.5145659
  28.4306716   0.7642421  36.5584065  25.7361780   7.7865209  28.5334516
  25.5162075   7.4962563  29.3261183  25.5156302   7.1280164  28.0052428
  25.6709374   7.6464917  28.5723425  24.6478727  -0.1261475  30.7990218
  24.3591976  -0.7524004  31.3335945  25.5162075  -0.1841187  30.8654898
  24.7338979  -0.2273931  30.8881172  27.9029736   9.1594599  27.3165208
  28.5553794   8.6271041  27.5456235  27.2055344   8.8063251  27.7033082
  27.8960454   9.0284122  27.4077376  24.8511001   1.5133776  26.7232583
  25.6056969   1.8946815  26.9368045  24.2581613   1.9644920  27.1779279
  24.8747714   1.6362604  26.8215461  26.1709227   2.6842338  32.0972698
  25.6489981   2.8242629  32.7824563  26.5583248   1.9253002  32.2874816
  26.1512928   2.5927861  32.2273775  32.3676232   4.4237797  26.0833267
  32.1262908   3.6905658  25.6760332  32.5477565   4.9724654  25.4299600
  32.3583856   4.3960188  25.9263490  23.6461700  -0.9940833  36.7189197
  24.1582796  -0.7156580  36.0697957  23.3598042  -0.2551539  37.0852010
  23.6796563  -0.8438479  36.6779075  26.7355713   6.3903118  35.1802554
  26.8845276   5.8306033  34.5275958  27.5155715   6.4695119  35.5635072
  26.8729806   6.3188683  35.1399503  29.2609013   6.5617761  36.4587044
  29.1852684   5.8926571  37.0137833  29.1898872   7.2635549  36.9727711
  29.2389620   6.5662668  36.6163893  29.9179260   5.0818759  27.2910650
  30.6829151   4.8128403  26.9693315  29.8157350   4.5968770  28.0080713
  30.0160756   4.9708324  27.3490478  32.4397921   2.1130943  19.2710600
  33.2070906   2.1731068  18.8616452  31.9929230   1.5411385  18.7866918
  32.4871348   2.0367519  19.1388310  35.3392451   3.7750731  23.7873510
  35.4212288   4.5817718  23.4634961  35.8242193   3.7946691  24.5114284
  35.4229609   3.8971394  23.8460409  28.6500648   9.9686080  34.9165045
  29.1396578   9.2696870  34.7340710  28.0784880   9.6709950  35.5041103
  28.6385177   9.8212304  34.9766086  29.1436993   3.7162854  24.0404952
  29.2129814   2.8577392  24.1797952  29.9225449   3.9334735  23.7123976
  29.2689843   3.6215718  24.0122109  33.5344481   6.1400555  28.2541445
  33.1424273   5.8367270  27.5364311  33.6897553   6.9769645  28.0646399
  33.4998071   6.2184392  28.1197942  33.6984156   2.7050544  28.1947476
  33.3398810   2.8765187  28.9711508  33.2122867   3.1663750  27.6375474
  33.5742853   2.7989515  28.2272745  34.8588895   3.5954440  39.1414676
  35.4968616   3.1014636  38.8077133  34.2162987   3.5231840  38.5566903
  34.8583122   3.5113448  39.0057031  34.9143152   4.2874248  35.7820033
  35.7035530   3.9363313  35.9022115  35.0886750   5.1010637  35.5196667
  35.0563433   4.3560105  35.7607901  26.5271478   2.8414094  36.7917517
  26.4191833   2.8516156  37.6579575  26.7367259   3.6668874  36.6022471
  26.5421589   2.9655169  36.8921609  24.5445270   0.0926736  34.2539455
  23.9533203   0.7336234  34.2242470  25.3066294   0.5164354  34.2270754
  24.5693531   0.2502575  34.2454602  34.3034786   5.5436048  31.6871479
  34.1054475   6.0326862  30.9927691  33.6822497   5.7477289  32.2655613
  34.1822351   5.6452586  31.6694703  21.8021132   1.7660834  35.3973371
  21.2721057   1.0753273  35.4468346  22.0746225   1.7571019  34.5686080
  21.7645854   1.6627966  35.2820787  32.8341223   2.3486536  24.1211054
  33.5575421   2.8144649  23.9775627  32.3941814   2.4160146  23.3708651
  32.8756915   2.4270373  23.9895835  17.0816974  -1.5611402  32.7541720
  16.9760423  -1.6064558  31.8893804  16.3317194  -1.2157622  33.0356004
  16.9552577  -1.5170494  32.6679049  30.4837292   2.4943983  36.3505171
  29.9762383   3.0479830  36.7945802  30.1863938   2.5552273  35.5323946
  30.3642177   2.5850295  36.2953628  33.0945072   6.4107241  24.2809115
  32.3774382   6.2368103  23.8156352  33.7451810   6.1759813  23.7484601
  33.0846923   6.3503034  24.1338333  29.7279777   7.4268542  33.2562178
  29.5045432   6.6687371  33.6246205  29.2389621   7.4566563  32.5342618
  29.6223226   7.3190766  33.2038919  28.3758234   7.6469000  30.7099263
  27.9618633   6.9843130  30.3203105  29.0605608   7.7946858  30.1894957
  28.4156606   7.5709658  30.5755760  31.7423528   6.8059085  31.4622880
  31.3439812   6.9161355  30.6943700  31.1274748   7.0141151  32.0449439
  31.5922418   6.8532653  31.4354179  19.7155694  -1.6819817  29.5382503
  18.8501213  -1.6934127  29.4265275  19.8154510  -1.8689594  30.3853643
  19.6029861  -1.7113756  29.6471448  25.3412704   8.0878081  33.1112609
  25.6559263   8.9014470  33.1190391  25.7506117   7.7028300  33.7794768
  25.4480802   8.1506784  33.2116701  32.2937223   3.5048128  30.6816421
  32.7648402   4.2188391  30.8506406  32.6297402   2.9046878  31.2176290
  32.4132338   3.5219592  30.7848797  34.3814208   5.1149442  42.8608493
  34.4911173   4.3258002  43.2165240  34.7105105   5.0255378  42.0582831
  34.4466614   4.9855294  42.7950884  32.9311170   3.2966062  37.4444114
  32.3832116   2.6723946  37.1764179  33.3924198   3.4860334  36.7288193
  32.9178379   3.2325112  37.2994545  22.6825724   2.0351190  32.7591217
  23.2870581   1.9947024  32.1305038  22.4753036   2.8822342  32.7895273
  22.7414621   2.1539192  32.6707334  32.4969496   4.3017135  33.9753455
  33.3167870   4.1580101  34.2369750  32.2163574   4.9263334  34.5169893
  32.5766239   4.3727487  34.0941394  17.9177006   1.0185807  32.6290141
  17.8201284   0.2082079  32.9380197  18.7005876   0.9977601  32.2436409
  18.0193143   0.8952898  32.6177003  42.1682831  11.0457638  31.6949262
  41.3120727  11.2066136  31.7458378  42.2150485  10.1749702  31.7154323
  42.0481943  10.9408440  31.7055328  45.4776548  17.3144163  41.3009718
  46.1843315  16.8196194  41.4296652  45.6664483  17.7553245  40.5712376
  45.6104453  17.3062514  41.2118763  42.0048931  21.0045725  22.8872040
  41.6700299  21.6822647  22.4516262  42.5175801  20.6151036  22.2988912
  42.0314512  21.0470303  22.7358832  45.0134652  13.1049682  34.3380913
  45.5590612  13.7834768  34.3974883  44.9551529  12.9637142  33.4782495
  45.0850567  13.1841683  34.2192974  46.7899721  14.5334289  25.2114641
  46.6739247  15.2841975  25.6406779  47.5855608  14.2758242  25.4610728
  46.8904310  14.6069136  25.3118733  33.6263859   8.7844765  32.2485907
  33.0068891   8.1937412  32.0795922  33.5247723   9.3756200  31.6150230
  33.5201534   8.7848847  32.1290897  38.6730046  18.5228312  26.4983983
  38.9945888  19.0633519  25.8945291  39.3202143  17.9525083  26.6306273
  38.8156102  18.5187487  26.4291019  40.7231755  10.5244307  26.5818370
  41.4211919  10.7032434  27.0739833  41.0384087  10.0014646  25.9588759
  40.8727092  10.4738079  26.5620380  33.3532992  12.3297047  34.4929476
  33.2291689  12.9159492  35.1279295  34.0051276  11.8357242  34.7941751
  33.4306641  12.3435851  34.6315405  40.9119690  16.9114752  26.5698162
  41.3513325  16.3031852  27.0152934  40.7624353  16.5322125  25.7983627
  40.9541156  16.7653223  26.5217329  38.3791333  15.5058764  33.7716987
  39.0240335  15.0131207  33.4527936  38.6193110  15.6483550  34.5983065
  38.5101918  15.4536206  33.8466520  40.9177424  18.3513669  33.4223880
  41.2000667  17.5565075  33.2010635  41.6463585  18.8294257  33.4428941
  41.0666988  18.3048266  33.3926895  38.8958618   5.8936703  30.6639645
  38.5661948   6.3447847  29.9943343  38.2203620   5.8152867  31.2112651
  38.7469054   5.9487839  30.6462868  44.5129027  15.2641933  23.5228931
  44.4280322  16.1202900  23.6678500  45.0013410  14.9886257  24.1911090
  44.5717924  15.3499254  23.6431012  45.4447460  11.8826727  25.0226666
  44.9158931  12.0986361  25.6823972  45.9672480  12.5762866  24.9427635
  45.4435913  12.0169864  25.1082265  37.3347068  15.7789944  23.8234134
  36.7504283  16.2839975  24.2299998  36.9317163  15.5532331  23.0830726
  37.1886371  15.8198192  23.7739159  38.9605250  20.2876886  33.2307620
  38.4432192  19.9284301  32.6268928  39.6579641  19.7639060  33.2413686
  38.9870831  20.1574574  33.1437879  42.6168842  20.7371700  39.1923793
  42.7052188  20.5497840  40.0402003  43.0458555  20.0909129  38.7928640
  42.6930945  20.6134708  39.2595544  40.1839302  20.0202860  38.1741455
  39.6210137  19.6075470  38.6981116  40.9460325  19.9455765  38.5934598
  40.2133751  19.9480260  38.3134455  41.7924282  12.0255596  22.3003055
  42.0320286  12.2333580  21.4878398  42.1140123  11.2213105  22.4091999
  41.8761440  11.9369697  22.1963608  37.1014572   3.9548992  26.1462592
  37.8560540   4.3227309  25.9079643  36.9242107   4.3288546  26.9141772
  37.1869051   4.0647180  26.2247481  36.7914200  12.2476468  39.9058500
  36.9634704  12.1382363  40.7543782  37.3283557  12.8930873  39.6689693
  36.8959204  12.3268470  39.9963597  35.4571637   6.3619311  22.8440705
  35.2747210   6.5791192  22.0181698  36.3197250   6.4758323  22.8999320
  35.5576226   6.4109209  22.7295192  45.1179657  14.2999109  29.7822023
  45.8737172  14.7330623  29.8210932  45.2241981  13.6503879  30.3556659
  45.2449827  14.2676593  29.8720049  48.1559828  18.1272386  30.5324426
  47.7195060  18.1309128  31.2883398  47.8222743  18.8077885  30.1004004
  48.0422448  18.2284842  30.5805259  42.7288901  20.1680719  41.8567577
  43.5129318  20.2811567  42.2223319  42.5285496  19.3421856  42.0526262
  42.8154927  20.0627438  41.9401963  35.0033664   9.6393483  21.3563178
  34.2891841   9.3531663  21.7685611  35.4877633   9.9790109  21.9969566
  34.9693027   9.6475133  21.5118813  35.8474523   8.3786777  37.3878428
  35.1546320   7.9083757  37.6339160  36.4634851   8.1525082  37.9620135
  35.8359053   8.2753909  37.5087581  42.8859295  22.0790821  35.5034032
  42.0874541  21.8390321  35.7607901  43.3345306  22.1305214  36.2501080
  42.8333906  22.0513212  35.6518956  42.1780982  18.1423437  21.7324987
  42.5932130  17.8108461  21.0409482  41.3472911  17.9092340  21.6045123
  42.1168991  18.0594693  21.6115834  47.5769005  15.8618688  29.1656052
  47.8124594  16.0063887  28.3382903  47.7258568  16.6261096  29.5587566
  47.6334808  15.9957743  29.1019656  34.5715082  12.3452181  38.5305273
  35.2955055  12.3305212  39.0170168  34.6731219  13.0547536  38.0327242
  34.6933291  12.4476884  38.5284060  41.9460032  15.8251266  43.3954220
  41.1533012  16.1394778  43.5806840  42.0608959  16.0402734  42.5575005
  41.8455442  15.9035103  43.2992555  44.6191351  12.5485257  27.6849236
  44.7138205  13.2874551  28.1388862  43.9950194  12.1202732  28.1183801
  44.5400381  12.5946578  27.8157384  42.8743824  15.7271470  38.3339517
  43.4482686  15.0898714  38.4888081  42.7958628  15.7275552  37.4649175
  42.9477059  15.6336581  38.2285928  31.4740241  12.5060679  32.1722231
  32.0513744  12.3697130  32.8114477  30.7754303  12.0496463  32.4267816
  31.4561262  12.4182945  32.3044521  44.8714372  14.3933997  20.9186188
  44.7894534  14.4636184  21.7841175  45.5094092  14.9563741  20.7269929
  44.9534209  14.4872968  21.0176138  38.2307543  14.1594735  30.3860714
  37.9726787  13.3266470  30.3592014  38.2856026  14.3852348  29.5453215
  38.2007321  14.0692506  30.2580851  43.3108593   6.2623185  30.4864807
  42.6064920   5.7732371  30.6448726  43.3593568   6.2745660  29.6153252
  43.2138645   6.1912833  30.3804147  37.2042255  11.7132497  30.8725609
  36.6291846  11.8724666  31.5089570  36.8277932  11.0767906  30.4094060
  37.0645068  11.6430310  30.8980168  40.8715544  10.1855846  35.7317988
  40.4829977   9.7610064  35.0770179  40.2070242  10.4337996  36.2395014
  40.7162472  10.1594568  35.7105856  26.9499074  11.3572572  28.8870050
  27.0359326  10.9804440  29.6683580  27.5774872  10.9833018  28.4090008
  27.0555625  11.2458054  28.9315527  41.9754482  14.4154451  23.9294795
  42.7895121  14.7069344  23.8177566  41.9113623  13.7614313  23.3553088
  42.0857221  14.3619646  23.8283632  37.8462390  17.8875969  29.0567107
  38.4836337  17.6487716  29.6018900  38.2717462  18.0913127  28.3220267
  38.0038557  17.8826979  29.0284264  38.4865205  13.1078258  23.3941996
  38.8710358  12.8885965  24.1458541  38.2376826  13.9341204  23.5243072
  38.5067278  13.1976405  23.5243072  40.2283862  18.3648391  30.7360893
  40.3022871  18.2023563  31.5902743  41.0453369  18.5538581  30.4921375
  40.3600221  18.3685133  30.8258919  36.2065643   4.7775195  28.7250777
  35.3388068   4.8497794  28.7908386  36.4940847   5.5797274  28.9138752
  36.1205391   4.9069342  28.7625543  38.7688448  21.3283134  25.4674366
  39.0586746  20.9372116  24.7433593  39.4991929  21.5099839  25.9079642
  38.9195332  21.2976948  25.4257173  39.3583193  16.1300880  36.5527497
  38.8594887  16.8416648  36.6312385  40.1683418  16.4501547  36.5145659
  39.4039300  16.2827729  36.5584065  35.6211311  15.3923833  30.7990218
  35.3324559  14.7661304  31.3335945  36.4894659  15.3344121  30.8654898
  35.7071563  15.2911377  30.8881172  46.4089209  10.5358617  31.1172200
  46.0653974   9.8148952  31.4679449  46.5082251  10.3272468  30.2750558
  46.3731251  10.3982820  31.0443880  46.8702238  16.9984321  26.6596188
  47.4360270  17.6577530  26.5754731  46.2230141  17.3434019  27.1312590
  46.8580994  17.1466262  26.7168944  38.2850251   8.9881925  41.8489795
  37.4750027   9.2939704  41.7379637  38.7624938   9.7087507  41.9642379
  38.2353730   9.1396526  41.8496866  37.1441811  18.2027646  32.0972698
  36.6222564  18.3427937  32.7824563  37.5315831  17.4438310  32.2874816
  37.1245512  18.1113169  32.2273775  34.1332995   8.2533454  26.1667653
  33.8457791   7.8834725  25.4299600  34.8203463   8.7228310  25.9051358
  34.1921892   8.2680424  26.0182729  43.3408816  19.9423105  26.0833267
  43.0995492  19.2090965  25.6760332  43.5210149  20.4909962  25.4299600
  43.3316440  19.9145496  25.9263490  38.5708136  15.2331665  27.4954189
  38.3750919  15.8406399  26.9014492  38.7942482  14.5399609  27.0145863
  38.5742777  15.2209190  27.3370270  36.9686666  12.1186402  27.6135058
  37.6909318  12.2827561  27.1538864  36.4894659  12.8396067  27.5074397
  37.0050397  12.2484632  27.5300672  44.9280174   8.4550201  32.9931742
  44.0891275   8.4811480  32.7570006  44.9984541   9.1020937  33.5737089
  44.8148568   8.5546327  33.0440859  34.6194283  14.5244475  36.7189197
  35.1315380  14.8028728  36.0697957  34.3330626  15.2633769  37.0852010
  34.6529146  14.6746829  36.6779075  31.7061189   9.0314667  27.0152934
  31.8077326   9.8340828  27.3433909  32.5017076   8.8302003  26.7176014
  31.8389095   9.1200566  27.0188289  38.1378009   6.6170863  36.7790239
  37.9461206   6.6325998  37.6289663  38.9876604   6.8134538  36.7556894
  38.2353730   6.6485215  36.9013534  32.5224922   9.1461845  34.7574055
  32.3810413   8.2945786  34.8818563  32.8065485   9.1890506  33.9336261
  32.5432768   9.0261595  34.6541680  42.6763514  10.9828935  28.9018544
  42.4298228  10.9024686  29.7355333  43.0048637  10.1982403  28.7081071
  42.6884757  10.8555200  28.9966067  46.5711563  17.6912294  32.6905325
  46.4325922  18.3893340  33.1954067  45.7911561  17.5360951  32.3341507
  46.4354790  17.7712461  32.7131599  44.9089648  13.9908670  38.9427707
  44.9037686  13.1188486  38.9470133  45.6150642  14.1896839  38.4697162
  45.0134652  13.8912544  38.8734742  38.6360541  13.7185654  38.3141527
  38.7803917  14.2986862  37.6784637  38.9836190  14.0961950  39.0191381
  38.7088003  13.8606358  38.3240522  40.8080459  12.9175822  36.0966658
  40.0603773  13.1106836  35.6914936  40.9621984  12.0921042  35.8590780
  40.7202886  12.8240934  36.0012064  37.7088296  21.9088426  35.1802554
  37.8577860  21.3491341  34.5275958  38.4888298  21.9880427  35.5635072
  37.8462390  21.8373991  35.1399503  48.0664936  17.0490548  23.4521824
  47.6871744  16.2627686  23.4451114  47.4031181  17.5977405  23.3093468
  47.9123410  17.0135372  23.4302621  40.2341597  22.0803068  36.4587044
  40.1585268  21.4111879  37.0137833  40.1631456  22.7820857  36.9727711
  40.2122204  22.0847976  36.6163893  41.0482236   6.8126373  36.9862062
  41.5054850   7.5450347  37.1134854  41.1238564   6.3892838  37.7449318
  41.1273205   6.8583611  37.1163139  33.2915227   7.0592193  38.0751506
  32.7557416   6.4472551  38.3912273  33.3532992   7.6340329  38.7285172
  33.2210859   7.0539120  38.2186933  40.8911844  20.6004067  27.2910650
  41.6561735  20.3313711  26.9693315  40.7889934  20.1154078  28.0080713
  40.9893339  20.4893632  27.3490478  38.9264613   8.8028477  33.8303886
  38.1360688   8.6219937  34.1521222  39.3225236   8.0255429  33.8134181
  38.8681490   8.6615938  33.8756435  43.4130504  17.6316251  19.2710600
  44.1803489  17.6916376  18.8616452  42.9661813  17.0596692  18.7866918
  43.4603932  17.5552827  19.1388310  44.3108300  16.4370907  31.5563332
  43.6353302  16.2056139  32.0576719  44.3200676  15.8292090  30.9305437
  44.2126804  16.3129832  31.5379484  41.4402444  11.2788736  38.3127385
  41.3761585  12.1398692  38.1847522  41.5799632  10.9620729  37.5122936
  41.4517914  11.3588903  38.1755598  46.3125034  19.2936039  23.7873510
  46.3944872  20.1003025  23.4634961  46.7974777  19.3131999  24.5114284
  46.3962192  19.4156702  23.8460409  40.1221538  13.9720875  32.4543588
  39.6983787  14.1725374  31.7182606  39.9466393  13.1249723  32.5667888
  40.0332418  13.8769657  32.3617278  39.6233231  25.4871388  34.9165045
  40.1129161  24.7882177  34.7340710  39.0517463  25.1895258  35.5041103
  39.6117761  25.3397612  34.9766086  35.4103983  14.4672927  27.8871561
  35.5668602  14.4019729  28.7427553  35.7504576  15.2421479  27.6750240
  35.4837217  14.5722125  27.9826155  41.9483127  13.8430810  26.7564924
  42.4898673  13.3401191  27.2203544  42.2629686  13.7896005  25.9454409
  42.0747524  13.7610231  26.7048736  40.1169577  19.2348162  24.0404952
  40.1862397  18.3762700  24.1797952  40.8958032  19.4520043  23.7123976
  40.2422427  19.1401026  24.0122109  43.0972397   8.7367115  36.8087224
  43.3114366   8.0978029  36.2550578  42.4806296   9.1812939  36.3795086
  43.0377726   8.7077258  36.6637655  44.5077065  21.6585863  28.2541445
  44.1156856  21.3552578  27.5364311  44.6630137  22.4954953  28.0646399
  44.4730654  21.7369700  28.1197942  31.9838244  11.6507877  28.2032328
  32.3637209  12.0692422  27.5392595  31.4093609  12.2321333  28.5101171
  31.9549569  11.7985736  28.1509069  45.2611485  10.3456180  37.7470531
  44.4488166  10.0382070  37.8283704  45.7201419   9.8655180  38.3113243
  45.2091869  10.2292672  37.8425125  44.6716739  18.2235852  28.1947476
  44.3131394  18.3950495  28.9711508  44.1855450  18.6849058  27.6375474
  44.5475436  18.3174823  28.2272745  39.4605105  13.9035017  20.7347710
  39.7497630  14.6799900  21.0091284  39.5476904  13.3923749  21.4362209
  39.5159361  13.9426936  20.8790208  45.8321479  19.1139748  39.1414676
  46.4701199  18.6199943  38.8077133  45.1895570  19.0417148  38.5566903
  45.8315705  19.0298756  39.0057031  47.5578479  10.9628894  33.7080592
  47.1306087  10.8755242  32.9528692  46.9204532  11.0706669  34.2935436
  47.4008086  10.9661554  33.6826034  45.8875735  19.8059556  35.7820033
  46.6768113  19.4548621  35.9022115  46.0619333  20.6195945  35.5196667
  46.0296017  19.8745413  35.7607901  35.6269046  13.2168282  32.8347822
  34.7857052  13.1172156  33.0426716  35.8359054  13.9863762  33.1862143
  35.5333738  13.3160325  32.9175137  33.1044613  10.8387819  30.6632573
  32.7101310  10.9130831  29.8882682  32.5484729  11.2245765  31.2140935
  32.9647425  10.9069593  30.6300233  39.4385711  11.1449681  32.0845420
  39.1348848  10.5905669  32.6855827  38.7365131  11.3241891  31.5973454
  39.2901920  11.0894463  32.1015125  38.4951808   8.4550201  26.6490121
  38.7711542   7.7369113  26.2367689  39.0950477   9.0535121  26.4411228
  38.6245072   8.4370572  26.5570883  37.5004062  18.3599402  36.7917517
  37.3924416  18.3701464  37.6579575  37.7099843  19.1854182  36.6022471
  37.5154173  18.4840477  36.8921609  41.9962328   6.1263718  24.9236716
  42.4506075   6.2974279  25.6484561  42.4702374   5.5131829  24.5234492
  42.1330648   6.0614603  24.9710478  35.5177854  15.6112044  34.2539455
  34.9265787  16.2521542  34.2242470  36.2798877  16.0349661  34.2270754
  35.5426114  15.7687883  34.2454602  35.9138476   6.7714042  34.9207473
  36.3739958   6.8452971  35.6582596  35.9594583   7.5695296  34.5707294
  35.9889032   6.9008189  34.9780229  37.5621826   7.4380737  39.4879500
  37.1707391   6.7914084  39.9235277  37.7307689   8.0292172  40.1073755
  37.5292736   7.4295005  39.6442206  45.2767370  21.0621356  31.6871479
  45.0787058  21.5512170  30.9927691  44.6555081  21.2662597  32.2655613
  45.1554934  21.1637894  31.6694703  39.3375348  12.8306253  26.0281724
  40.0817393  13.2180529  26.2664674  39.4836044  11.9863678  26.1922212
  39.4685933  12.7636725  26.0875693  42.3253224   8.4031726  31.9275643
  41.8513178   7.8773488  32.4380954  42.6971360   7.8561199  31.3590505
  42.3103113   8.2447722  31.9190790  32.7026254  10.4003233  37.2959189
  33.5651867  10.2998942  37.2096519  32.3718037   9.8197942  36.7344761
  32.7811451  10.2994859  37.2004595  44.2536724   9.2968280  24.9901397
  43.7259742   9.3797024  24.3007106  44.7132432  10.0386152  24.9866042
  44.2438574   9.4188943  24.8876092  47.1941172  14.6285508  37.2216728
  47.9175371  14.1758034  37.0427748  46.9291134  14.9090174  36.4389056
  47.2622445  14.6036477  37.0795443  36.0628040   9.2245682  33.9569607
  35.4381110   9.2364074  33.3495560  35.7273635   9.7005857  34.6060847
  35.9213532   9.2964199  33.9626176  36.2469789   7.5670800  20.0142292
  35.8982593   8.2190525  20.4773841  35.7666235   7.5527913  19.2866163
  36.1240033   7.6613854  19.9753383  43.8073806  17.8671844  24.1211054
  44.5308005  18.3329957  23.9775627  43.3674397  17.9345454  23.3708651
  43.8489498  17.9455681  23.9895835  42.9759961  14.7269386  35.3711743
  42.3616954  14.1827437  35.6660378  43.4927246  14.2133623  34.8917559
  42.9615624  14.5705795  35.3435971  42.2156258  15.7973656  33.1056042
  41.7883866  15.1723375  32.6721477  42.2081203  15.5148578  33.9315049
  42.1515400  15.6626437  33.1635869  35.3318785  10.8338829  36.1744476
  35.4912272  10.0782154  36.5796197  35.1511679  11.3829769  36.8285213
  35.3284144  10.8032643  36.3307181  40.5441968   6.6742411  33.3198576
  40.5684455   6.1402523  32.6311356  40.7953442   6.1659720  33.9824166
  40.5851887   6.5203315  33.3163220  36.8243290   5.4013229  32.7004320
  36.8641662   5.9022436  33.4139027  35.9992955   5.4923623  32.4310243
  36.7082816   5.4895045  32.7654858  39.0072903  14.9673969  40.8024614
  38.1568534  15.1045683  40.9382259  39.1701031  14.2337747  41.2472316
  38.9056767  14.8788070  40.8880214  38.2457654  11.9173739  34.9978219
  37.4149583  12.0847557  34.7913467  38.1909171  11.5409690  35.7827104
  38.1147069  11.8863470  35.0826747  36.0541437   5.4082632  40.6334630
  36.6794140   4.8644765  40.9064062  35.5991917   4.9277549  40.0642420
  36.0789698   5.2572113  40.5896223  36.6193698  10.1929330  25.5268337
  36.7596659  10.6901795  26.2296978  37.1176230   9.4915625  25.6682550
  36.7134778  10.1631309  25.6519916  36.6493920  11.0596442  22.8560913
  37.2838999  11.6556867  22.7910375  36.7319531  10.7599899  23.6706784
  36.7550471  11.1037350  22.9664000  38.2272903   6.9910417  22.8306355
  38.5488744   6.5113499  22.1765618  38.4899847   7.8010063  22.6397167
  38.3138928   7.0400315  22.7061847  41.4569876  18.0129291  36.3505171
  40.9494967  18.5665138  36.7945802  41.1596522  18.0737581  35.5323946
  41.3374760  18.1035602  36.2953628  43.6232058   6.3782611  35.1929834
  44.0487129   5.9255137  34.5813361  43.0089051   5.8242682  35.4694622
  43.5960703   6.2296587  35.1434860  44.0677656  21.9292549  24.2809115
  43.3506966  21.7553411  23.8156352  44.7184393  21.6945121  23.7484601
  44.0579506  21.8688341  24.1338333  46.6525627  10.8057137  28.0250420
  45.9816817  11.3486840  27.8963486  47.3465377  11.2751993  27.7832115
  46.6554495  10.9555409  27.9705948  40.7012361  22.9453849  33.2562178
  40.4778015  22.1872679  33.6246205  40.2122204  22.9751871  32.5342618
  40.5955810  22.8376074  33.2038919  35.5137440   9.8920541  28.9923640
  34.7949429  10.3084673  29.2596503  35.8849802  10.4574780  28.4415278
  35.4629371  10.0369822  28.9506447  44.8137020  10.5248390  34.8825636
  44.7934948  10.3431685  35.7360414  44.8616221  11.3960408  34.8585219
  44.8171661  10.6264928  35.0048930  42.7583350  17.1135582  40.8074112
  42.7179205  16.4685259  40.2219268  43.5706668  17.0572199  41.1199524
  42.8726504  17.0094549  40.7671061  42.7156112  22.3244393  31.4622880
  42.3172395  22.4346663  30.6943700  42.1007331  22.5326459  32.0449439
  42.5655001  22.3717961  31.4354179  41.2884014   8.9318541  24.3297019
  40.6948853   9.2535537  23.7781586  41.3259292   8.0859636  24.1218125
  41.2058403   8.8542869  24.2179791  44.1641830   8.8898045  27.7598770
  43.9355523   8.9130747  26.9177128  44.4239907   8.0655512  27.8793780
  44.1688019   8.7714125  27.6523967  38.4461059  10.7432518  37.3623870
  37.9339962  10.1353701  37.7208901  38.2740555  11.4589111  37.8297845
  38.3450696  10.7595818  37.4840093  33.2926774   9.1870094  40.0126232
  33.1229364   9.8471468  39.4674438  32.8492723   9.3976655  40.7338721
  33.2026107   9.3156076  40.0387861  37.2186593   7.4274592  29.0552965
  37.6943959   7.7891671  28.4203146  36.7175193   8.0831059  29.3353108
  37.2151952   7.5768780  29.0029706  42.3230129   8.6656763  39.8026125
  42.8801559   8.4370572  39.1704591  41.9991194   9.4262429  39.5261338
  42.3576539   8.7440600  39.6682622  30.1928838  12.0916959  35.2714721
  29.6455558  11.4217605  35.3895590  30.9821216  11.7246807  35.3358189
  30.2281022  11.9381946  35.2983422  40.0413247  11.7524416  40.7678132
  40.7924573  12.0676093  41.0817687  40.2335823  11.5503587  39.9412054
  40.1804661  11.7691798  40.6921528  39.2613246   9.5715791  22.4226349
  39.6412211   9.5895420  21.6377464  38.5205842  10.0169780  22.3017196
  39.2082084   9.6397566  22.2889917  46.8898537   7.8797983  28.0101928
  46.8892763   7.7246639  28.8686204  46.6854717   8.7260970  27.9543313
  46.8598315   7.9818603  28.1289867  28.9515808  11.3037767  32.4260744
  28.7737569  10.8514376  33.1515660  28.6634830  12.1063928  32.6099222
  28.8828761  11.3560325  32.5604247  44.6139389  12.5595484  31.6638135
  45.1093054  11.8418479  31.6242155  43.8039164  12.2566282  31.5492622
  44.5683282  12.4093131  31.6411861  40.0598000  16.4093298  23.8135139
  39.2509323  16.0859971  23.7668449  40.5672909  15.7026520  23.7463388
  40.0147667  16.2574614  23.7965434  30.6888277  13.8365491  29.5382503
  29.8233797  13.8251181  29.4265275  30.7887093  13.6495714  30.3853643
  30.5762444  13.8071552  29.6471448  46.6791208  15.3099172  34.3515263
  47.1046279  14.7873594  33.7985689  46.3148127  15.9080009  33.8303886
  46.6877810  15.3209399  34.1924273  43.2669807  19.0233436  30.6816421
  43.7380985  19.7373699  30.8506406  43.6029986  18.4232186  31.2176290
  43.3864922  19.0404900  30.7848797  45.3546792  20.6334749  42.8608493
  45.4643757  19.8443310  43.2165240  45.6837688  20.5440686  42.0582831
  45.4199197  20.5040602  42.7950884  43.9043753  18.8151370  37.4444114
  43.3564699  18.1909254  37.1764179  44.3656782  19.0045642  36.7288193
  43.8910963  18.7510420  37.2994545  39.2532417   5.7977320  25.1053981
  40.0748111   5.9675632  24.8635676  38.7902068   5.9524580  24.3820278
  39.3063579   5.8459052  24.9625625  43.4702080  19.8202443  33.9753455
  44.2900453  19.6765409  34.2369750  43.1896157  20.4448642  34.5169893
  43.5498823  19.8912795  34.0941394  47.5256555  36.1005664  27.4586493
  46.7739454  35.7221202  27.2302538  47.9742566  36.1324097  26.7105303
  47.4806221  36.0491271  27.3143995  44.5996442  24.3030073  32.2485907
  43.9801474  23.7122720  32.0795922  44.4980306  24.8941508  31.6150230
  44.4934118  24.3034155  32.1290897  44.3265576  27.8482355  34.4929476
  44.2024272  28.4344800  35.1279295  44.9783860  27.3542550  34.7941751
  44.4039225  27.8621159  34.6315405  48.3079651  31.2975252  23.8234134
  47.7236866  31.8025283  24.2299998  47.9049746  31.0717639  23.0830726
  48.1618955  31.3383500  23.7739159  43.8623680  37.0130013  30.6257805
  43.3791258  37.7380503  30.6017389  44.6746998  37.3106143  30.7367963
  43.9114427  37.1632367  30.6385085  46.7167877  37.5286189  30.7778085
  47.4188456  37.0138178  30.8350842  46.6365360  37.8560340  31.5824960
  46.8091637  37.5000415  30.9050877  47.7646784  27.7661776  39.9058500
  47.9367287  27.6567670  40.7543782  48.3016141  28.4116181  39.6689693
  47.8691788  27.8453778  39.9963597  46.4304220  21.8804619  22.8440705
  46.2479794  22.0976500  22.0181698  47.2929833  21.9943631  22.8999320
  46.5308810  21.9294517  22.7295192  46.0418652  33.7192541  30.2863693
  46.8807552  33.9515474  30.3337455  46.0730422  32.8496852  30.2170729
  46.1700370  33.6249487  30.2828338  46.6671355  34.1393416  34.5876999
  47.2069580  33.9964547  35.2580371  45.9841302  34.5390167  34.9561025
  46.6463509  34.1773087  34.7411421  42.0708500  30.3593707  34.7411420
  41.8046916  29.5432824  34.9002411  42.0847065  30.4046862  33.8706936
  42.0333223  30.2450612  34.6364902  45.9766247  25.1578791  21.3563178
  45.2624425  24.8716971  21.7685611  46.4610216  25.4975417  21.9969566
  45.9425611  25.1660441  21.5118813  46.8207107  23.8972085  37.3878428
  46.1278904  23.4269065  37.6339160  47.4367434  23.6710390  37.9620135
  46.8091637  23.7939217  37.5087581  42.4801914  31.1452486  32.0223165
  42.2977487  31.1199372  31.1695457  43.2151583  31.6151424  32.0612073
  42.5615978  31.2113849  31.9021083  45.5447666  27.8637489  38.5305273
  46.2687638  27.8490520  39.0170168  45.6463802  28.5732844  38.0327242
  45.6665875  27.9662192  38.5284060  42.4472824  28.0245987  32.1722231
  43.0246327  27.8882438  32.8114477  41.7486886  27.5681771  32.4267816
  42.4293846  27.9368253  32.3044521  48.1774839  27.2317805  30.8725609
  47.6024430  27.3909973  31.5089570  47.8010515  26.5953214  30.4094060
  48.0377651  27.1615618  30.8980168  43.5107616  35.6449613  32.9401410
  43.5511762  35.9164464  32.1121190  44.0702140  36.1691521  33.3559198
  43.5990962  35.7625368  32.8793299  44.9622203  34.2291562  27.7655336
  44.1360320  34.4753299  27.6389615  45.0234194  34.1503643  28.6317395
  44.8496370  34.2536511  27.8744281  47.1798226  20.2960503  28.7250777
  46.3120652  20.3683102  28.7908386  47.4673431  21.0982582  28.9138752
  47.0937974  20.4254650  28.7625543  47.6826947  38.8235825  28.5334516
  47.4627243  38.5333179  29.3261183  47.4621469  38.1650780  28.0052428
  47.6174541  38.6835533  28.5723425  46.5943894  30.9109141  30.7990218
  46.3057143  30.2846612  31.3335945  47.4627242  30.8529428  30.8654898
  46.6804146  30.8096685  30.8881172  46.7976168  32.5504392  26.7232583
  47.5522136  32.9317431  26.9368045  46.2046780  33.0015536  27.1779279
  46.8212881  32.6733219  26.8215461  48.1174394  33.7212953  32.0972698
  47.5955148  33.8613245  32.7824563  48.5048415  32.9623618  32.2874816
  48.0978095  33.6298477  32.2273775  45.1065578  23.7718762  26.1667653
  44.8190374  23.4020033  25.4299600  45.7936047  24.2413618  25.9051358
  45.1654476  23.7865732  26.0182729  47.9419250  27.6371710  27.6135058
  48.6641902  27.8012869  27.1538864  47.4627243  28.3581375  27.5074397
  47.9782981  27.7669940  27.5300672  45.5926867  30.0429783  36.7189197
  46.1047964  30.3214036  36.0697957  45.3063209  30.7819077  37.0852010
  45.6261730  30.1932136  36.6779075  42.6793773  24.5499975  27.0152934
  42.7809909  25.3526136  27.3433909  43.4749660  24.3487311  26.7176014
  42.8121679  24.6385873  27.0188289  43.4957505  24.6647153  34.7574055
  43.3542997  23.8131094  34.8818563  43.7798069  24.7075814  33.9336261
  43.5165351  24.5446903  34.6541680  44.2647810  22.5777500  38.0751506
  43.7290000  21.9657859  38.3912273  44.3265575  23.1525636  38.7285172
  44.1943443  22.5724428  38.2186933  46.3836566  29.9858235  27.8871561
  46.5401185  29.9205037  28.7427553  46.7237159  30.7606787  27.6750240
  46.4569801  30.0907433  27.9826155  42.9570828  27.1693185  28.2032328
  43.3369793  27.5877730  27.5392595  42.3826193  27.7506641  28.5101171
  42.9282153  27.3171044  28.1509069  46.6001629  28.7353590  32.8347822
  45.7589636  28.6357464  33.0426716  46.8091637  29.5049070  33.1862143
  46.5066322  28.8345633  32.9175137  44.0777196  26.3573127  30.6632573
  43.6833894  26.4316139  29.8882682  43.5217313  26.7431073  31.2140935
  43.9380009  26.4254901  30.6300233  48.4736645  33.8784710  36.7917517
  48.3657000  33.8886772  37.6579575  48.6832427  34.7039490  36.6022471
  48.4886756  34.0025784  36.8921609  46.4910437  31.1297352  34.2539455
  45.8998370  31.7706850  34.2242470  47.2531461  31.5534969  34.2270754
  46.5158698  31.2873191  34.2454602  46.8871060  22.2899350  34.9207473
  47.3472541  22.3638279  35.6582596  46.9327167  23.0880604  34.5707294
  46.9621615  22.4193497  34.9780229  48.5354410  22.9566045  39.4879500
  48.1439975  22.3099392  39.9235277  48.7040272  23.5477480  40.1073755
  48.5025320  22.9480313  39.6442206  43.6758838  25.9188541  37.2959189
  44.5384451  25.8184250  37.2096519  43.3450621  25.3383250  36.7344761
  43.7544034  25.8180167  37.2004595  47.0360624  24.7430990  33.9569607
  46.4113694  24.7549381  33.3495560  46.7006219  25.2191165  34.6060847
  46.8946116  24.8149507  33.9626176  47.2202372  23.0856108  20.0142292
  46.8715177  23.7375833  20.4773841  46.7398818  23.0713221  19.2866163
  47.0972616  23.1799162  19.9753383  43.7486299  32.8031450  35.3973371
  43.2186224  32.1123889  35.4468346  44.0211393  32.7941635  34.5686080
  43.7111022  32.6998581  35.2820787  46.3051369  26.3524137  36.1744476
  46.4644856  25.5967461  36.5796197  46.1244263  26.9015077  36.8285213
  46.3016728  26.3217951  36.3307181  39.0282141  29.4759214  32.7541720
  38.9225591  29.4306058  31.8893804  38.2782361  29.8212994  33.0356004
  38.9017744  29.5200122  32.6679049  47.7975874  20.9198537  32.7004320
  47.8374245  21.4207744  33.4139027  46.9725539  21.0108931  32.4310243
  47.6815400  21.0080353  32.7654858  47.0274021  20.9267940  40.6334630
  47.6526724  20.3830073  40.9064062  46.5724500  20.4462857  40.0642420
  47.0522281  20.7757421  40.5896223  47.5926281  25.7114638  25.5268337
  47.7329242  26.2087103  26.2296978  48.0908814  25.0100933  25.6682550
  47.6867362  25.6816617  25.6519916  47.6226503  26.5781749  22.8560913
  48.2571583  27.1742174  22.7910375  47.7052114  26.2785207  23.6706784
  47.7283054  26.6222658  22.9664000  44.1279491  28.7749590  26.1250459
  44.6371721  29.3714098  26.5061765  44.6013764  28.5075564  25.4426879
  44.2722867  28.8235406  26.0804982  46.4870023  25.4105849  28.9923640
  45.7682012  25.8269981  29.2596503  46.8582385  25.9760088  28.4415278
  46.4361955  25.5555130  28.9506447  44.2659357  24.7055402  40.0126232
  44.0961947  25.3656776  39.4674438  43.8225307  24.9161963  40.7338721
  44.1758691  24.8341384  40.0387861  48.1919177  22.9459899  29.0552965
  48.6676543  23.3076979  28.4203146  47.6907776  23.6016367  29.3353108
  48.1884536  23.0954088  29.0029706  41.1661422  27.6102267  35.2714721
  40.6188141  26.9402913  35.3895590  41.9553800  27.2432115  35.3358189
  41.2013605  27.4567253  35.2983422  39.9248391  26.8223075  32.4260744
  39.7470152  26.3699684  33.1515660  39.6367413  27.6249236  32.6099222
  39.8561344  26.8745633  32.5604247  41.6620861  29.3550799  29.5382503
  40.7966381  29.3436489  29.4265275  41.7619677  29.1681021  30.3853643
  41.5495028  29.3256860  29.6471448  47.2877871  39.1248697  33.1112609
  47.6024430  39.9385086  33.1190391  47.6971284  38.7398916  33.7794768
  47.3945969  39.1877400  33.2116701  44.6290891  33.0721806  32.7591217
  45.2335748  33.0317640  32.1305038  44.4218204  33.9192958  32.7895273
  44.6879788  33.1909808  32.6707334  39.8642173  32.0556423  32.6290141
  39.7666451  31.2452695  32.9380197  40.6471043  32.0348217  32.2436409
  39.9658310  31.9323513  32.6177003  47.2207379  13.0383795  14.3926540
  46.4690278  12.6599333  14.1642585  47.6693390  13.0702228  13.6445350
  47.1757045  12.9869402  14.2484042  41.9957179   9.0722473  16.2841646
  41.7607363   8.2390126  16.1773915  42.1342820   9.3527139  15.4702847
  41.9812841   8.9905977  16.1484001  43.5574504  13.9508144  17.5597852
  43.0742082  14.6758634  17.5357436  44.3697822  14.2484274  17.6708010
  43.6065251  14.1010498  17.5725131  46.4118701  14.4664320  17.7118132
  47.1139280  13.9516309  17.7690889  46.3316184  14.7938471  18.5165007
  46.5042461  14.4378546  17.8390924  45.7369476  10.6570672  17.2203740
  46.5758376  10.8893605  17.2677502  45.7681245   9.7874983  17.1510776
  45.8651194  10.5627619  17.2168385  46.3622179  11.0771547  21.5217046
  46.9020404  10.9342678  22.1920418  45.6792126  11.4768298  21.8901072
  46.3414333  11.1151218  21.6751467  41.7659324   7.2971838  21.6751467
  41.4997740   6.4810955  21.8342457  41.7797889   7.3424994  20.8046983
  41.7284047   7.1828743  21.5704949  42.1752738   8.0830617  18.9563211
  41.9928311   8.0577503  18.1035504  42.9102407   8.5529555  18.9952120
  42.2566802   8.1491980  18.8361130  43.2058440  12.5827744  19.8741457
  43.2462586  12.8542595  19.0461237  43.7652964  13.1069652  20.2899245
  43.2941786  12.7003499  19.8133345  44.6573027  11.1669693  14.6995383
  43.8311144  11.4131430  14.5729662  44.7185018  11.0881774  15.5657441
  44.5447194  11.1914642  14.8084328  47.3777771  15.7613956  15.4674563
  47.1578067  15.4711310  16.2601230  47.1572293  15.1028911  14.9392475
  47.3125365  15.6213664  15.5063472  46.2894718   7.8487272  17.7330265
  46.0007967   7.2224743  18.2675992  47.1578066   7.7907560  17.7994945
  46.3754970   7.7474816  17.8221219  46.4926992   9.4882523  13.6572630
  47.2472960   9.8695562  13.8708092  45.8997604   9.9393667  14.1119326
  46.5163705   9.6111351  13.7555508  47.8125218  10.6591085  19.0312745
  47.2905972  10.7991376  19.7164610  48.1999239   9.9001749  19.2214862
  47.7928919  10.5676608  19.1613821  45.2877691   6.9807914  23.6529244
  45.7998788   7.2592167  23.0038004  45.0014033   7.7197208  24.0192057
  45.3212554   7.1310268  23.6119122  46.0787390   6.9236366  14.8211607
  46.2352009   6.8583169  15.6767599  46.4187983   7.6984918  14.6090287
  46.1520625   7.0285564  14.9166201  48.1687469  10.8162841  23.7257564
  48.0607824  10.8264903  24.5919622  48.3783251  11.6417621  23.5362518
  48.1837580  10.9403916  23.8261656  46.1861261   8.0675483  21.1879502
  45.5949194   8.7084981  21.1582517  46.9482285   8.4913101  21.1610801
  46.2109522   8.2251322  21.1794649  38.7232965   6.4137345  19.6881766
  38.6176414   6.3684189  18.8233850  37.9733185   6.7591125  19.9696051
  38.5968568   6.4578253  19.6019096  41.3571685   6.2928930  16.4722550
  40.4917204   6.2814620  16.3605321  41.4570501   6.1059153  17.3193690
  41.2445852   6.2634991  16.5811495  46.9828695  16.0626828  20.0452656
  47.2975254  16.8763217  20.0530438  47.3922108  15.6777047  20.7134815
  47.0896793  16.1255531  20.1456747  44.3241715  10.0099937  19.6931264
  44.9286572   9.9695771  19.0645085  44.1169028  10.8571089  19.7235320
  44.3830612  10.1287939  19.6047381  39.5592997   8.9934554  19.5630187
  39.4617275   8.1830826  19.8720244  40.3421867   8.9726348  19.1776455
  39.6609134   8.8701645  19.5517050   5.7667521  19.2285203  39.7321645
   5.7361526  20.0829839  39.9039914   6.3648870  18.9280495  40.2907788
   5.8504679  19.3101699  39.8396447   3.5884096  21.8037505  38.0039955
   3.4723622  22.5545191  38.4332093   4.3839983  21.5461458  38.2536042
   3.6888685  21.8772352  38.1044046   1.3113402  22.5345149  36.3154244
   1.2264697  23.3906116  36.4603813   1.7997785  22.2589473  36.9836404
   1.3702299  22.6202471  36.4356326   2.2431835  19.1529943  37.8151980
   1.7143306  19.3689577  38.4749286   2.7656855  19.8466082  37.7352949
   2.2420288  19.2873080  37.9007579   7.6979888  24.7276248  43.1885024
   6.8677591  24.9386891  43.3518441   7.6489140  23.9013302  42.9127308
   7.5686623  24.6365854  43.1722389   1.9164032  21.5702325  42.5747337
   2.6721547  22.0033839  42.6136246   2.0226356  20.9207095  43.1481973
   2.0434202  21.5379809  42.6645362   4.9544203  25.3975602  43.3249740
   4.5179435  25.4012345  44.0808711   4.6207118  26.0781101  42.8929317
   4.8406823  25.4988058  43.3730572   8.0888549  22.1156522  42.2169377
   8.7504983  21.5547191  42.1165286   7.4479961  21.6208553  42.5422068
   8.0917417  21.9592931  42.2501717   4.3753380  23.1321904  41.9581366
   4.6108969  23.2767103  41.1308216   4.5242943  23.8964312  42.3512879
   4.4319183  23.2660959  41.8944970   6.2043837  21.9723570  39.7950970
   6.5352054  22.5051211  39.1891065   6.7776925  22.0262458  40.4512921
   6.3377516  22.0593139  39.8028751   1.4175726  19.8188473  40.4774550
   1.5122580  20.5577767  40.9314175   0.7934569  19.3905949  40.9109114
   1.3384756  19.8649794  40.6082697   1.6698747  21.6637213  33.7111502
   1.5878909  21.7339400  34.5766489   2.3078467  22.2266957  33.5195242
   1.7518584  21.7576184  33.8101451   7.3123188  17.2134067  41.2991131
   7.0559753  16.4014009  41.1089014   8.1552502  17.2211634  41.0721319
   7.3989213  17.0946065  41.2375948  11.7186560  20.7921113  46.5246323
  11.6511060  20.8117072  45.6548909  11.7042223  21.6351440  46.7501993
  11.7065317  20.9194847  46.4298800   9.5045177  19.5665499  44.7992917
  10.0553099  18.9333568  45.0390009   9.4889293  20.0980892  45.4908421
   9.5830374  19.5514447  44.9371775   3.6686613  24.2687537  39.4521501
   4.2344645  24.9280747  39.3680044   3.0214516  24.6137235  39.9237903
   3.6565369  24.4169478  39.5094258   5.6022073  20.9321404  43.0718298
   5.5156047  21.0876830  43.9253077   5.1472553  21.5759480  42.6977703
   5.5225330  21.0497159  43.1425405   3.3695938  24.9615511  45.4830639
   3.2310297  25.6596556  45.9879381   2.5895936  24.8064167  45.1266820
   3.2339165  25.0415677  45.5056913   4.8649311  24.3193764  36.2447138
   4.4856119  23.5330902  36.2376427   4.2015556  24.8680621  36.1018782
   4.7107785  24.2838588  36.2227935   3.1109409  26.5639255  36.5798824
   3.1929247  27.3706242  36.2560275   3.5959152  26.5835215  37.3039597
   3.1946567  26.6859918  36.6385722   1.3061440  28.9289079  41.0466759
   0.9141231  28.6255794  40.3289625   1.4614512  29.7658169  40.8571713
   1.2715029  29.0072916  40.9123256   1.4701114  25.4939068  40.9872789
   1.1115769  25.6653711  41.7636822   0.9839825  25.9552274  40.4300788
   1.3459811  25.5878039  41.0198058   1.0521099  16.5671497  37.7826711
   0.5244117  16.6500241  37.0932419   1.5116807  17.3089368  37.7791355
   1.0422949  16.6892159  37.6801406   3.4510002  18.0760354  40.8175734
   2.7801192  18.6190056  40.6888799   4.1449752  18.5455209  40.5757429
   3.4538870  18.2258625  40.7631261   7.2482330  24.1699576  37.6391284
   7.6315935  24.9190932  37.8689381   6.4526443  24.4165395  37.3803273
   7.1876112  24.3169270  37.6348857  16.7400105  34.7470511  39.7321645
  16.7094109  35.6015147  39.9039914  17.3381454  34.4465803  40.2907788
  16.8237263  34.8287007  39.8396447   9.9399790  33.8346162  44.4874575
   9.0837685  33.9954660  44.5383692   9.9867444  32.9638226  44.5079636
   9.8198901  33.7296964  44.4980641   9.7765889  43.7934249  35.6797354
   9.4417258  44.4711171  35.2441576  10.2892760  43.4039560  35.0914226
   9.8031471  43.8358827  35.5284145  12.7851611  35.8938206  47.1306227
  13.3307571  36.5723292  47.1900197  12.7268487  35.7525667  46.2707808
  12.8567525  35.9730207  47.0118287  14.5616680  37.3222813  38.0039955
  14.4456205  38.0730499  38.4332093  15.3572566  37.0646766  38.2536042
  14.6621269  37.3957660  38.1044046   6.4447005  41.3116836  39.2909297
   6.7662846  41.8522043  38.6870605   7.0919102  40.7413607  39.4231587
   6.5873060  41.3076011  39.2216332   8.4948713  33.3132831  39.3743684
   9.1928878  33.4920958  39.8665147   8.8101046  32.7903170  38.7514073
   8.6444050  33.2626603  39.3545694   8.6836649  39.7003276  39.3623475
   9.1230284  39.0920376  39.8078248   8.5341311  39.3210649  38.5908940
   8.7258114  39.5541747  39.3142643   6.6675577  28.6825227  43.4564958
   6.3378907  29.1336371  42.7868657   5.9920579  28.6041391  44.0037965
   6.5186013  28.7376363  43.4388182  12.2845985  38.0530457  36.3154244
  12.1997280  38.9091424  36.4603813  12.7730368  37.7774781  36.9836404
  12.3434882  38.1387778  36.4356326  13.8751985  24.6710750  41.7014569
  13.5605426  25.3614229  42.1334991  13.3578926  24.6155533  41.0000070
  13.7516455  24.7645639  41.6611518  13.2164418  34.6715251  37.8151980
  12.6875890  34.8874885  38.4749286  13.7389438  35.3651390  37.7352949
  13.2152871  34.8058388  37.9007579  18.6712471  40.2461556  43.1885024
  17.8410174  40.4572199  43.3518441  18.6221724  39.4198610  42.9127308
  18.5419207  40.1551162  43.1722389   5.1064026  38.5678468  36.6159448
   4.5221241  39.0728499  37.0225311   4.7034121  38.3420855  35.8756040
   4.9603330  38.6086716  36.5664473   9.5641241  34.8144120  35.0928368
   9.8037244  35.0222104  34.2803711   9.8857082  34.0101629  35.2017313
   9.6478398  34.7258221  34.9888921   4.8731531  26.7437516  38.9387906
   5.6277499  27.1115833  38.7004956   4.6959065  27.1177070  39.7067086
   4.9586009  26.8535704  39.0172795  18.1666430  32.8931956  46.9835445
  17.3294851  32.9634143  47.2183040  18.1354660  32.8956451  46.1109748
  18.0384712  32.9042183  46.8894993   3.2288595  29.1507835  35.6366019
   3.0464169  29.3679716  34.8107012   4.0914208  29.2646847  35.6924634
   3.3293185  29.1997733  35.5220506   8.9088315  26.1534245  38.6715043
   9.6374475  25.9750200  38.2253199   8.9983208  26.9952325  38.8822221
   9.0294977  26.2518124  38.6368561  12.8896615  37.0887633  42.5747337
  13.6454130  37.5219147  42.6136246  12.9958940  36.4392403  43.1481973
  13.0166786  37.0565117  42.6645362  15.9276786  40.9160910  43.3249740
  15.4912018  40.9197652  44.0808711  15.5939702  41.5966409  42.8929317
  15.8139406  41.0173366  43.3730572  15.8474269  27.9574738  45.5679168
  16.4900178  28.0272843  46.1541083  16.0997290  27.2903961  45.0658710
  15.9796401  27.8701087  45.5806447   2.7750622  32.4282007  34.1488492
   2.0608800  32.1420187  34.5610925   3.2594591  32.7678633  34.7894880
   2.7409986  32.4363657  34.3044127  19.0621133  37.6341830  42.2169377
  19.7237567  37.0732498  42.1165286  18.4212545  37.1393861  42.5422068
  19.0650000  37.4778239  42.2501717   9.9497940  40.9311961  34.5250300
  10.3649089  40.5996985  33.8334796   9.1189870  40.6980864  34.3970437
   9.8885949  40.8483217  34.4041148  15.3485963  38.6507212  41.9581366
  15.5841553  38.7952411  41.1308216  15.4975527  39.4149620  42.3512879
  15.4051767  38.7846267  41.8944970  17.1776420  37.4908878  39.7950970
  17.5084637  38.0236518  39.1891065  17.7509508  37.5447766  40.4512921
  17.3110099  37.5778447  39.8028751  12.3908309  35.3373781  40.4774550
  12.4855164  36.0763075  40.9314175  11.7667153  34.9091256  40.9109114
  12.3117339  35.3835102  40.6082697  12.6431331  37.1822521  33.7111502
  12.5611493  37.2524708  34.5766489  13.2811051  37.7452265  33.5195242
  12.7251168  37.2761492  33.8101451  11.0825552  29.0511709  43.2790121
  10.3781879  28.5620895  43.4374040  11.1310526  29.0634184  42.4078565
  10.9855603  28.9801357  43.1729461  18.2855772  32.7319375  41.2991131
  18.0292336  31.9199317  41.1089014  19.1285086  32.7396942  41.0721319
  18.3721797  32.6131373  41.2375948  12.4658864  26.6718999  46.0367285
  12.8469376  25.9897170  46.4235160  11.6622148  26.3828601  45.8542950
  12.4035326  26.5286048  46.0671341   9.7471441  37.2042975  36.7220108
  10.5612080  37.4957868  36.6102880   9.6830582  36.5502837  36.1478401
   9.8574180  37.1508170  36.6208946   6.2582164  35.8966782  36.1867310
   6.6427317  35.6774489  36.9383855   6.0093784  36.7229728  36.3168386
   6.2784237  35.9864929  36.3168386  16.9917352  39.6713420  47.1977978
  16.6863169  40.4041477  47.5591294  16.2723567  39.2651349  46.9170764
  16.8404694  39.7195153  47.2091115  22.6919144  36.3106421  46.5246323
  22.6243644  36.3302380  45.6548909  22.6774806  37.1536748  46.7501993
  22.6797900  36.4380155  46.4298800   3.9782601  27.5663719  41.5176090
   3.1105027  27.6386318  41.5833699   4.2657806  28.3685798  41.7064065
   3.8922349  27.6957866  41.5550857  13.1015490  27.7141578  49.8487412
  13.8469082  27.5251389  49.4350837  12.6852795  28.2399816  49.2901268
  13.1500464  27.7643724  49.7051985  20.4777761  35.0850807  44.7992917
  21.0285683  34.4518876  45.0390009  20.4621876  35.6166200  45.4908421
  20.5562957  35.0699755  44.9371775  14.1806167  33.3247141  43.9097513
  13.8370933  32.6037476  44.2604763  14.2799210  33.1160992  43.0675871
  14.1448210  33.1871344  43.8369193  14.6419196  39.7872845  39.4521501
  15.2077229  40.4466054  39.3680044  13.9947100  40.1322543  39.9237903
  14.6297953  39.9354786  39.5094258   1.9049953  31.0421978  38.9592966
   1.6174749  30.6723249  38.2224914   2.5920422  31.5116834  38.6976671
   1.9638851  31.0568948  38.8108042  11.1125774  42.7311629  38.8758581
  10.8712450  41.9979489  38.4685646  11.2927107  43.2798486  38.2224914
  11.1033398  42.7034020  38.7188804   6.3425095  38.0220189  40.2879503
   6.1467878  38.6294923  39.6939806   6.5659441  37.3288133  39.8071177
   6.3459736  38.0097714  40.1295584   4.7403625  34.9074927  40.4060371
   5.4626277  35.0716085  39.9464177   4.2611618  35.6284591  40.2999711
   4.7767356  35.0373156  40.3225985  12.6997133  31.2438725  45.7857056
  11.8608233  31.2700004  45.5495319  12.7701500  31.8909461  46.3662403
  12.5865526  31.3434851  45.8366173  11.1466411  28.1424102  40.5184672
  11.8492764  27.9431851  40.0404630  10.8810600  27.3700045  40.8253516
  11.2113043  27.9987068  40.4930114  16.5754656  36.4506712  43.0718298
  16.4888631  36.6062138  43.9253077  16.1205136  37.0944788  42.6977703
  16.4957913  36.5682467  43.1425405  10.4480473  33.7717459  41.6943857
  10.2015187  33.6913210  42.5280646  10.7765596  32.9870927  41.5006385
  10.4601716  33.6443725  41.7891380  14.3428521  40.4800819  45.4830639
  14.2042881  41.1781864  45.9879381  13.5628519  40.3249475  45.1266820
  14.2071748  40.5600985  45.5056913  15.8381894  39.8379072  36.2447138
  15.4588703  39.0516210  36.2376427  15.1748140  40.3865929  36.1018782
  15.6840369  39.8023896  36.2227935  13.2926520  22.7804772  43.6481219
  13.4110088  23.2381235  42.9148521  13.1188696  21.9750033  43.3617436
  13.2845691  22.7298544  43.4982152  11.1847463  40.4204775  32.0635913
  11.9520448  40.4804900  31.6541765  10.7378772  39.8485217  31.5792232
  11.2320890  40.3441351  31.9313624  12.0825258  39.2259431  44.3488646
  11.4070260  38.9944663  44.8502033  12.0917635  38.6180614  43.7230751
  11.9843763  39.1018356  44.3304798  14.0841993  42.0824563  36.5798824
  14.1661830  42.8891550  36.2560275  14.5691735  42.1020523  37.3039597
  14.1679151  42.2045226  36.6385722   9.7200086  36.6319334  39.5490237
  10.2615631  36.1289715  40.0128858  10.0346645  36.5784529  38.7379723
   9.8464483  36.5498755  39.4974049   7.8886536  42.0236686  36.8330265
   7.9579356  41.1651224  36.9723266   8.6674991  42.2408567  36.5049290
   8.0139386  41.9289550  36.8047423  12.2794023  44.4474387  41.0466759
  11.8873815  44.1441102  40.3289625  12.4347095  45.2843477  40.8571713
  12.2447613  44.5258224  40.9123256  12.4433698  41.0124376  40.9872789
  12.0848353  41.1839019  41.7636822  11.9572409  41.4737582  40.4300788
  12.3192395  41.1063347  41.0198058  10.2604084  24.6355574  44.5899881
   9.3897642  24.6094296  44.5433190  10.5144425  24.4632767  43.7725726
  10.1697644  24.6065718  44.4620017   7.2322063  36.6923541  33.5273024
   7.5214588  37.4688424  33.8016598   7.3193862  36.1812273  34.2287523
   7.2876320  36.7315460  33.6715521   7.2853224  26.6461803  46.0473351
   6.7691713  25.9541994  46.1724930   6.7247153  27.3132580  45.9935950
   7.1259738  26.6425060  46.0579417   9.3545458  27.1854763  47.8766204
   8.9677211  27.2103794  48.6579733   8.8678395  26.6196442  47.4240720
   9.2257967  27.1050514  47.9254107  15.3295437  33.7517418  46.5005906
  14.9023045  33.6643766  45.7454005  14.6921490  33.8595193  47.0860750
  15.1725045  33.7550078  46.4751347  12.5126518  26.6057637  43.1361765
  12.7176111  26.5379945  43.9818762  12.1852942  27.4116458  43.0682943
  12.4941766  26.7143577  43.2521420   6.2668766  31.2438725  39.4415435
   6.5428501  30.5257637  39.0293003   6.8667436  31.8423645  39.2336541
   6.3962031  31.2259096  39.3496196  15.7660206  27.1589401  42.6164531
  15.1534519  27.6459803  43.0018263  15.8624381  26.4832892  43.1602182
  15.6898103  27.1307710  42.7543389   9.7679287  28.9152242  37.7162030
  10.2223033  29.0862803  38.4409875  10.2419332  28.3020353  37.3159806
   9.9047607  28.8503127  37.7635792   7.1092307  35.6194777  38.8207037
   7.8534352  36.0069053  39.0589987   7.2553003  34.7752202  38.9847525
   7.2402892  35.5525249  38.8801007   9.0271882  27.4145036  43.8538899
   8.1807927  27.5867843  43.7280249   9.0243015  26.6094379  44.1904727
   8.9019032  27.3206064  43.8850026  10.0970183  31.1920250  44.7200957
   9.6230137  30.6662012  45.2306268  10.4688318  30.6449723  44.1515818
  10.0820072  31.0336247  44.7116104  16.3606913  36.2522626  46.1307737
  16.1205136  35.4129041  46.1350164  16.8398920  36.3322792  46.8548511
  16.3959097  36.1404025  46.2382540  12.0253682  32.0856805  37.7826711
  11.4976701  32.1685548  37.0932419  12.4849390  32.8274676  37.7791355
  12.0155533  32.2077467  37.6801406  18.3612100  33.0324083  44.0836996
  18.1221870  32.9919917  43.2457781  18.5246001  33.8795235  44.2102717
  18.3502404  33.1516168  43.9790478   4.0186747  30.3559324  32.8067606
   3.6699552  31.0079049  33.2699155   3.5383193  30.3416437  32.0791477
   3.8956991  30.4502378  32.7678697  11.5790765  40.6560368  36.9136368
  12.3024964  41.1218481  36.7700941  11.1391356  40.7233978  36.1633965
  11.6206457  40.7344205  36.7821149  11.0456047  25.7888589  49.5220579
  10.5496608  25.9852263  48.8312145  11.8025109  26.1881257  49.3509380
  11.0842872  25.8766323  49.3940715   8.3158927  29.4630935  46.1123889
   8.3401414  28.9291047  45.4236669   8.5670400  28.9548244  46.7749480
   8.3568845  29.3091839  46.1088534   4.3910656  32.9817855  38.3193650
   4.5313617  33.4790319  39.0222292   4.8893189  32.2804149  38.4607864
   4.4851737  32.9519833  38.4445229   4.4210879  33.8484966  35.6486227
   5.0555958  34.4445391  35.5835689   4.5036489  33.5488423  36.4632097
   4.5267429  33.8925874  35.7589314  17.3993444  36.3800443  48.5172591
  17.9911285  37.0197694  48.5490789  17.8352439  35.6823480  48.8064658
  17.5511876  36.3718793  48.5653424   5.9989861  29.7798941  35.6231669
   6.3205702  29.3002023  34.9690931   6.2616805  30.5898587  35.4322481
   6.0855887  29.8288839  35.4987161  11.3949016  29.1671135  47.9855148
  11.8204088  28.7143661  47.3738675  10.7806009  28.6131206  48.2619936
  11.3677662  29.0185111  47.9360173  11.8394614  44.7181073  37.0734429
  11.1223924  44.5441935  36.6081666  12.4901352  44.4833645  36.5409915
  11.8296465  44.6576865  36.9263647   9.8343239  25.6386235  41.3945725
   9.1911557  25.4883881  41.9630864   9.4942646  25.3928580  40.6294830
   9.6888317  25.5798357  41.3648740  14.4242586  33.5945662  40.8175734
  13.7533776  34.1375364  40.6888799  15.1182336  34.0640517  40.5757429
  14.4271453  33.7443933  40.7631261  14.5870713  30.0501545  43.7266107
  14.9398323  29.6231268  44.4011906  13.7285515  29.9652389  43.8567183
  14.5120158  29.9746286  43.8461117  12.5853979  33.3136914  47.6750949
  12.5651906  33.1320209  48.5285728  12.6333180  34.1848932  47.6510533
  12.5888620  33.4153452  47.7974244   9.0600973  31.7207065  37.1222333
   8.4665812  32.0424061  36.5706900   9.0976250  30.8748160  36.9143439
   8.9775362  31.6431393  37.0105104  16.0194773  25.1719957  44.6550419
  15.5125638  24.4649097  44.5871597  16.8162207  24.8413146  44.7851496
  16.0622012  25.0193108  44.6649414  11.9358789  31.6786569  40.5524083
  11.7072482  31.7019271  39.7102441  12.1956865  30.8544036  40.6719094
  11.9404977  31.5602649  40.4449281   4.9903552  30.2163116  41.8478279
   5.4660918  30.5780195  41.2128460   4.4892151  30.8719583  42.1278422
   4.9868911  30.3657304  41.7955020  18.2214913  39.6884884  37.6391284
  18.6048519  40.4376240  37.8689381  17.4259026  39.9350703  37.3803273
  18.1608695  39.8354577  37.6348857   7.0330205  32.3604315  35.2151663
   7.4129170  32.3783945  34.4302778   6.2922801  32.8058304  35.0942510
   6.9799042  32.4286090  35.0815231  14.6615495  30.6686507  40.8027241
  14.6609722  30.5135163  41.6611518  14.4571675  31.5149494  40.7468627
  14.6315273  30.7707127  40.9215181  12.3856347  35.3484008  44.4563448
  12.8810013  34.6307003  44.4167469  11.5756123  35.0454806  44.3417935
  12.3400241  35.1981655  44.4337174   7.8314959  39.1981822  36.6060453
   7.0226282  38.8748495  36.5593762   8.3389868  38.4915044  36.5388701
   7.7864626  39.0463138  36.5890747  14.4508166  38.0987696  47.1440577
  14.8763238  37.5762118  46.5911002  14.0865086  38.6968533  46.6229200
  14.4594769  38.1097923  46.9849587  11.0288616  23.5079757  47.0280923
  10.2234579  23.3977486  47.3448761  10.8995351  23.6092213  46.1710788
  10.8908749  23.5063427  46.9488963  14.4854576  29.6725249  47.6220620
  13.9017565  30.1734455  47.2098187  14.8058870  29.1654805  46.9884943
  14.4467752  29.6717084  47.4679127   7.0249375  28.5865844  37.8979294
   7.8465070  28.7564156  37.6560989   6.5619026  28.7413105  37.1745592
   7.0780538  28.6347577  37.7550939  17.6408160  44.2010535  43.4564958
  17.3111490  44.6521679  42.7868657  16.9653162  44.1226699  44.0037965
  17.4918597  44.2561671  43.4388182  24.8484568  40.1896058  41.7014569
  24.5338009  40.8799537  42.1334991  24.3311510  40.1340840  41.0000070
  24.7249039  40.2830947  41.6611518  15.8464114  42.2622824  38.9387906
  16.6010082  42.6301141  38.7004956  15.6691649  42.6362378  39.7067086
  15.9318593  42.3721012  39.0172795  14.2021179  44.6693143  35.6366019
  14.0196752  44.8865024  34.8107012  15.0646792  44.7832155  35.6924634
  14.3025769  44.7183041  35.5220506  19.8820898  41.6719553  38.6715043
  20.6107059  41.4935508  38.2253199  19.9715791  42.5137633  38.8822221
  20.0027560  41.7703432  38.6368561  22.0558135  44.5697017  43.2790121
  21.3514462  44.0806203  43.4374040  22.1043110  44.5819492  42.4078565
  21.9588187  44.4986665  43.1729461  14.9515185  43.0849027  41.5176090
  14.0837610  43.1571626  41.5833699  15.2390389  43.8871106  41.7064065
  14.8654933  43.2143174  41.5550857  22.1198994  43.6609410  40.5184672
  22.8225347  43.4617159  40.0404630  21.8543183  42.8885353  40.8253516
  22.1845627  43.5172376  40.4930114  24.2659104  38.2990080  43.6481219
  24.3842672  38.7566543  42.9148521  24.0921279  37.4935341  43.3617436
  24.2578275  38.2483852  43.4982152  21.2336667  40.1540882  44.5899881
  20.3630225  40.1279603  44.5433190  21.4877009  39.9818075  43.7725726
  21.1430228  40.1251026  44.4620017  18.2585808  42.1647111  46.0473351
  17.7424297  41.4727302  46.1724930  17.6979737  42.8317888  45.9935950
  18.0992321  42.1610368  46.0579417  23.4859102  42.1242945  43.1361765
  23.6908695  42.0565253  43.9818762  23.1585526  42.9301766  43.0682943
  23.4674350  42.2328885  43.2521420  17.2401350  46.7624033  39.4415435
  17.5161084  46.0442945  39.0293003  17.8400019  47.3608953  39.2336541
  17.3694614  46.7444404  39.3496196  26.7392789  42.6774709  42.6164531
  26.1267103  43.1645111  43.0018263  26.8356964  42.0018200  43.1602182
  26.6630687  42.6493018  42.7543389  20.7411870  44.4337550  37.7162030
  21.1955617  44.6048111  38.4409875  21.2151916  43.8205661  37.3159806
  20.8780190  44.3688435  37.7635792  20.0004466  42.9330343  43.8538899
  19.1540511  43.1053151  43.7280249  19.9975598  42.1279687  44.1904727
  19.8751616  42.8391372  43.8850026  22.9986266  47.6042112  37.7826711
  22.4709284  47.6870856  37.0932419  23.4581974  48.3459984  37.7791355
  22.9888116  47.7262775  37.6801406  14.9919331  45.8744632  32.8067606
  14.6432135  46.5264357  33.2699155  14.5115777  45.8601745  32.0791477
  14.8689575  45.9687686  32.7678697  16.9722445  45.2984249  35.6231669
  17.2938286  44.8187331  34.9690931  17.2349389  46.1083895  35.4322481
  17.0588470  45.3474147  35.4987161  20.8075823  41.1571543  41.3945725
  20.1644141  41.0069189  41.9630864  20.4675230  40.9113888  40.6294830
  20.6620900  41.0983665  41.3648740  20.0333556  47.2392373  37.1222333
  19.4398395  47.5609369  36.5706900  20.0708834  46.3933468  36.9143439
  19.9507945  47.1616701  37.0105104  22.9091373  47.1971877  40.5524083
  22.6805066  47.2204579  39.7102441  23.1689449  46.3729344  40.6719094
  22.9137561  47.0787957  40.4449281  15.9636135  45.7348423  41.8478279
  16.4393501  46.0965503  41.2128460  15.4624735  46.3904891  42.1278422
  15.9601494  45.8842612  41.7955020  25.6348079  46.1871814  40.8027241
  25.6342305  46.0320471  41.6611518  25.4304259  47.0334802  40.7468627
  25.6047857  46.2892435  40.9215181  22.0021199  39.0265065  47.0280923
  21.1967163  38.9162794  47.3448761  21.8727935  39.1277520  46.1710788
  21.8641332  39.0248735  46.9488963  17.9981959  44.1051151  37.8979294
  18.8197653  44.2749464  37.6560989  17.5351610  44.2598412  37.1745592
  18.0513121  44.1532884  37.7550939  16.4350929  11.6848642  26.6661692
  16.4044933  12.5393279  26.8379961  17.0332278  11.3843934  27.2247835
  16.5188087  11.7665138  26.7736494   9.6350614  10.7724293  31.4214622
   8.7788509  10.9332791  31.4723739   9.6818268   9.9016357  31.4419683
   9.5149725  10.6675095  31.4320688   4.0191754  20.3087011  27.1851854
   3.2674653  19.9302549  26.9567899   4.4677765  20.3405444  26.4370664
   3.9741420  20.2572618  27.0409356  12.9444330  17.0410819  41.0275078
  13.6511098  16.5462849  41.1562013  13.1332266  17.4819900  40.2977736
  13.0772236  17.0329169  40.9384124   9.4716713  20.7312380  22.6137401
   9.1368082  21.4089302  22.1781623   9.9843584  20.3417692  22.0254272
   9.4982295  20.7736958  22.4624192   9.0121005  22.6826649  28.5548512
   9.3960384  23.2513548  28.0153287   8.9480146  21.9576159  28.0754328
   9.0594432  22.6602112  28.4042375  12.4802435  12.8316337  34.0646274
  13.0258395  13.5101423  34.1240243  12.4219311  12.6903798  33.2047855
  12.5518349  12.9108339  33.9458334   5.5976510  20.3205403  29.4514626
   5.6986873  19.5105757  29.7611754   5.0018255  20.2262349  28.8214305
   5.5249048  20.1870431  29.4040865  14.2567504  14.2600944  24.9380001
  14.1407029  15.0108630  25.3672140  15.0523390  14.0024897  25.1876088
  14.3572093  14.3335791  25.0384093   5.4377249  25.2382992  30.8529482
   6.0814705  25.6796156  31.2425641   5.7633505  24.4336418  30.7659741
   5.5809078  25.1848187  30.8974959   1.0931641   8.5111420  31.9751267
   0.4736673   7.9204067  31.8061282   0.9915505   9.1022855  31.3415591
   0.9869317   8.5115503  31.8556257   6.1397829  18.2494967  26.2249344
   6.4613670  18.7900174  25.6210652   6.7869926  17.6791738  26.3571634
   6.2823884  18.2454142  26.1556379   8.1899537  10.2510962  26.3083731
   8.8879702  10.4299089  26.8005194   8.5051870   9.7281301  25.6854120
   8.3394874  10.2004734  26.2885741   0.8200774  12.0563702  34.2194836
   0.6959471  12.6426147  34.8544655   1.4719059  11.5623898  34.5207111
   0.8974424  12.0702506  34.3580766   8.3787472  16.6381407  26.2963522
   8.8181108  16.0298507  26.7418295   8.2292135  16.2588780  25.5248987
   8.4208938  16.4919878  26.2482689   5.8459115  15.2325419  33.4982348
   6.4908118  14.7397862  33.1793296   6.0860893  15.3750205  34.3248426
   5.9769701  15.1802861  33.5731881   8.3845207  18.0780325  33.1489240
   8.6668450  17.2831730  32.9275996   9.1131367  18.5560912  33.1694301
   8.5334771  18.0314922  33.1192255   6.3626401   5.6203359  30.3905005
   6.0329731   6.0714502  29.7208704   5.6871402   5.5419522  30.9378012
   6.2136837   5.6754494  30.3728228  11.9796809  14.9908588  23.2494291
  11.8948104  15.8469555  23.3943860  12.4681192  14.7152912  23.9176450
  12.0385706  15.0765910  23.3696373  13.5702808   1.6088881  28.6354616
  13.2556249   2.2992360  29.0675038  13.0529750   1.5533664  27.9340117
  13.4467279   1.7023770  28.5951565  12.9115242  11.6093382  24.7492026
  12.3826714  11.8253016  25.4089333  13.4340262  12.3029521  24.6692996
  12.9103695  11.7436519  24.8347626  18.3663295  17.1839687  30.1225071
  17.5360998  17.3950330  30.2858487  18.3172547  16.3576741  29.8467354
  18.2370031  17.0929293  30.1062436   4.8014850  15.5056599  23.5499494
   4.2172065  16.0106631  23.9565358   4.3984945  15.2798986  22.8096086
   4.6554154  15.5464847  23.5004520   6.4273033  20.0143541  32.9572980
   5.9099974  19.6550956  32.3534288   7.1247424  19.4905715  32.9679046
   6.4538614  19.8841229  32.8703239  10.0836625  20.4638355  38.9189153
  10.1719971  20.2764495  39.7667364  10.5126337  19.8175785  38.5194000
  10.1598727  20.3401363  38.9860905   7.6507084  19.7469515  37.9006816
   7.0877919  19.3342125  38.4246477   8.4128108  19.6722421  38.3199959
   7.6801533  19.6746916  38.0399816   9.2592064  11.7522251  22.0268415
   9.4988068  11.9600235  21.2143758   9.5807905  10.9479760  22.1357359
   9.3429222  11.6636352  21.9228968   3.2103076  21.7367536  30.5043446
   3.9123655  21.2219525  30.5616202   3.1300559  22.0641688  31.3090321
   3.3026836  21.7081762  30.6316238  17.8617253   9.8310087  33.9175492
  17.0245675   9.9012275  34.1523087  17.8305484   9.8334582  33.0449795
  17.7335536   9.8420315  33.8235040   2.9239419   6.0885966  22.5706066
   2.7414993   6.3057847  21.7447059   3.7865032   6.2024979  22.6264680
   3.0244009   6.1375864  22.4560553   2.5353851  17.9273888  30.0129054
   3.3742751  18.1596821  30.0602815   2.5665621  17.0578200  29.9436089
   2.6635569  17.8330835  30.0093698   3.1606554  18.3474763  34.3142359
   3.7004779  18.2045894  34.9845732   2.4776501  18.7471514  34.6826386
   3.1398708  18.3854434  34.4676781   8.6039139   3.0912377  25.6055090
   9.3325299   2.9128332  25.1593246   8.6934031   3.9330456  25.8162268
   8.7245801   3.1896255  25.5708607  12.5847439  14.0265764  29.5087384
  13.3404954  14.4597278  29.5476292  12.6909764  13.3770534  30.0822020
  12.7117610  13.9943248  29.5985409  15.6227610  17.8539041  30.2589787
  15.1862842  17.8575784  31.0148758  15.2890526  18.5344540  29.8269364
  15.5090230  17.9551497  30.3070619  10.1956684  19.8947374  41.5832937
  10.9797101  20.0078222  41.9488679   9.9953279  19.0688511  41.7791623
  10.2822709  19.7894093  41.6667323  15.5425093   4.8952869  32.5019215
  16.1851002   4.9650974  33.0881130  15.7948114   4.2282092  31.9998756
  15.6747225   4.8079218  32.5146494   2.4701446   9.3660139  21.0828539
   1.7559624   9.0798318  21.4950971   2.9545415   9.7056764  21.7234926
   2.4360810   9.3741788  21.2384174  10.3527077  21.8057476  35.2299393
   9.5542323  21.5656976  35.4873261  10.8013089  21.8571869  35.9766440
  10.3001689  21.7779867  35.3784317  18.7571957  14.5719961  29.1509424
  19.4188391  14.0110630  29.0505332  18.1163369  14.0771992  29.4762115
  18.7600824  14.4156370  29.1841764   9.6448764  17.8690093  21.4590347
  10.0599913  17.5375116  20.7674843   8.8140694  17.6358995  21.3310484
   9.5836773  17.7861349  21.3381195  15.0436787  15.5885344  28.8921413
  15.2792376  15.7330542  28.0648263  15.1926351  16.3527752  29.2852926
  15.1002591  15.7224398  28.8285017  16.8727244  14.4287009  26.7291016
  17.2035461  14.9614650  26.1231111  17.4460332  14.4825897  27.3852967
  17.0060923  14.5156578  26.7368798  12.0859133  12.2751912  27.4114597
  12.1805988  13.0141206  27.8654222  11.4617977  11.8469388  27.8449161
  12.0068163  12.3213233  27.5422744  10.3411607  15.4538125  38.0604877
  10.9150469  14.8165369  38.2153441  10.2626411  15.4542207  37.1914535
  10.4144842  15.3603236  37.9551288  12.3382154  14.1200652  20.6451549
  12.2562317  14.1902839  21.5106536  12.9761875  14.6830396  20.4535289
  12.4201992  14.2139623  20.7441498   5.6975326  13.8861390  30.1126075
   5.4394570  13.0533125  30.0857374   5.7523808  14.1119003  29.2718575
   5.6675103  13.7959161  29.9846212  10.7776376   5.9889841  30.2130168
  10.0732702   5.4999026  30.3714087  10.8261350   6.0012315  29.3418612
  10.6806427   5.9179489  30.1069507   4.6710038  11.4399152  30.5990970
   4.0959629  11.5991321  31.2354931   4.2945714  10.8034562  30.1359420
   4.5312850  11.3696965  30.6245528   8.3383326   9.9122502  35.4583348
   7.9497759   9.4876719  34.8035539   7.6738025  10.1604651  35.9660375
   8.1830254   9.8861223  35.4371216  17.9806596   9.6697506  28.2331178
  17.7243160   8.8577448  28.0429061  18.8235910   9.6775074  28.0061365
  18.0672621   9.5509504  28.1715995  12.1609688   3.6097130  32.9707332
  12.5420200   2.9275302  33.3575206  11.3572972   3.3206733  32.7882997
  12.0986150   3.4664179  33.0011388   9.4422265  14.1421106  23.6560155
  10.2562903  14.4335999  23.5442926   9.3781406  13.4880969  23.0818448
   9.5525004  14.0886301  23.5548992  15.6631755  16.8247102  38.0689731
  15.4270392  15.9935167  37.9501791  16.3074984  16.7732710  38.6544575
  15.7226426  16.6944790  38.1375624   5.3130173  17.6142624  28.7832467
   5.9504120  17.3754371  29.3284260   5.7385245  17.8179783  28.0485628
   5.4706339  17.6093634  28.7549624   5.9532988  12.8344913  23.1207356
   6.3378141  12.6152620  23.8723902   5.7044608  13.6607859  23.2508433
   5.9735061  12.9243060  23.2508433  16.6868175  16.6091551  34.1318025
  16.3813993  17.3419608  34.4931341  15.9674391  16.2029481  33.8510811
  16.5355518  16.6573284  34.1431162   7.6951645  18.0915046  30.4626253
   7.7690653  17.9290218  31.3168103   8.5121151  18.2805236  30.2186735
   7.8268004  18.0951789  30.5524279   1.4557402  18.4372909  27.4920697
   0.6295519  18.6834646  27.3654976   1.5169393  18.3584990  28.3582755
   1.3431569  18.4617858  27.6009641  12.7966314   4.6519710  36.7827459
  13.5419906   4.4629520  36.3690884  12.3803619   5.1777947  36.2241315
  12.8451288   4.7021855  36.6392032   6.2356231  21.0549789  25.1939727
   6.5254529  20.6638771  24.4698953   6.9659711  21.2366494  25.6345002
   6.3863115  21.0243603  25.1522534  20.1728585  12.0228938  31.7332964
  20.7236506  11.3897007  31.9730056  20.1572700  12.5544331  32.4248468
  20.2513781  12.0077886  31.8711822   6.8250976  15.8567535  36.2792857
   6.3262669  16.5683303  36.3577746   7.6351200  16.1768202  36.2411020
   6.8707083  16.0094384  36.2849426   4.1762146  23.0317172  28.2599876
   3.9562442  22.7414527  29.0526543   3.9556668  22.3732127  27.7317789
   4.1109740  22.8916880  28.2988785   3.0879093  15.1190488  30.5255578
   2.7992342  14.4927960  31.0601305   3.9562441  15.0610776  30.5920259
   3.1739345  15.0178033  30.6146533  13.8756991  10.2625272  30.8437560
  13.5321757   9.5415607  31.1944810  13.9750034  10.0539123  30.0015918
  13.8399034  10.1249475  30.7709240   6.3430102  24.4046562  27.0430569
   6.9954160  23.8723004  27.2721595   5.6455711  24.0515214  27.4298443
   6.3360820  24.2736085  27.1342737   3.2911367  16.7585739  26.4497943
   4.0457335  17.1398778  26.6633406   2.6981979  17.2096883  26.9044640
   3.3148080  16.8814567  26.5480822  14.3370020  16.7250976  26.3861548
  14.9028053  17.3844186  26.3020091  13.6897924  17.0700674  26.8577950
  14.3248777  16.8732917  26.4434305   4.6109593  17.9294301  31.8238059
   4.0890347  18.0694592  32.5089923   4.9983614  17.1704965  32.0140176
   4.5913294  17.8379825  31.9539135   1.6000777   7.9800109  25.8933013
   1.3125573   7.6101380  25.1564961   2.2871246   8.4494965  25.6316718
   1.6589675   7.9947079  25.7448089  10.8076598  19.6689760  25.8098627
  10.5663274  18.9357621  25.4025692  10.9877931  20.2176617  25.1564961
  10.7984222  19.6412151  25.6528850   6.0375919  14.9598320  27.2219550
   5.8418702  15.5673054  26.6279853   6.2610265  14.2666264  26.7411224
   6.0410560  14.9475845  27.0635630   4.4354449  11.8453058  27.3400418
   5.1577101  12.0094216  26.8804224   3.9562442  12.5662722  27.2339758
   4.4718180  11.9751287  27.2566032  12.3947957   8.1816856  32.7197103
  11.5559057   8.2078135  32.4835366  12.4652324   8.8287592  33.3002450
  12.2816350   8.2812982  32.7706220   2.0862066  14.2511130  36.4454558
   2.5983163  14.5295383  35.7963318   1.7998408  14.9900424  36.8117371
   2.1196929  14.4013484  36.4044436  10.8417235   5.0802233  27.4524719
  11.5443588   4.8809982  26.9744677  10.5761424   4.3078176  27.7593562
  10.9063867   4.9365200  27.4270160  16.2705480  13.3884843  30.0058345
  16.1839455  13.5440269  30.8593124  15.8155960  14.0322919  29.6317750
  16.1908737  13.5060598  30.0765451  10.1431296  10.7095590  28.6283904
   9.8966011  10.6291341  29.4620693  10.4716420   9.9249058  28.4346432
  10.1552540  10.5821856  28.7231427  14.0379345  17.4178950  32.4170685
  13.8993705  18.1159995  32.9219428  13.2579343  17.2627606  32.0606867
  13.9022572  17.4979116  32.4396960  12.3757430  13.7175325  38.6693067
  12.3705469  12.8455142  38.6735494  13.0818424  13.9163494  38.1962523
  12.4802434  13.6179199  38.6000103   6.1028324  13.4452309  38.0406887
   6.2471699  14.0253517  37.4049997   6.4503972  13.8228606  38.7456742
   6.1755785  13.5873013  38.0505882   8.2748241  12.6442477  35.8232019
   7.5271555  12.8373492  35.4180297   8.4289766  11.8187697  35.5856140
   8.1870669  12.5507589  35.7277425   5.1756079  21.6355081  34.9067914
   5.3245642  21.0757997  34.2541319   5.9556081  21.7147082  35.2900433
   5.3130172  21.5640646  34.8664863  15.5332718  16.7757203  23.1787185
  15.1539527  15.9894341  23.1716474  14.8698964  17.3244060  23.0358829
  15.3791193  16.7402027  23.1567982   7.7009379  21.8069724  36.1852405
   7.6253050  21.1378534  36.7403193   7.6299239  22.5087512  36.6993071
   7.6789986  21.8114631  36.3429253  12.9877344  -0.2817097  30.5821266
  13.1060912   0.1759367  29.8488568  12.8139520  -1.0871836  30.2957483
  12.9796515  -0.3323325  30.4322199   8.3579626  20.3270722  27.0176011
   9.1229517  20.0580366  26.6958675   8.2557716  19.8420733  27.7346074
   8.4561122  20.2160287  27.0755838   6.3932396   8.5295132  33.5569247
   5.6028471   8.3486592  33.8786582   6.7893019   7.7522085  33.5399541
   6.3349272   8.3882593  33.6021795  10.8798287  17.3582906  18.9975960
  11.6471272  17.4183031  18.5881812  10.4329596  16.7863348  18.5132279
  10.9271714  17.2819482  18.8653671  11.7776082  16.1637562  31.2828693
  11.1021084  15.9322794  31.7842080  11.7868458  15.5558745  30.6570798
  11.6794587  16.0396487  31.2644845   8.9070226  11.0055391  38.0392746
   8.8429368  11.8665348  37.9112882   9.0467414  10.6887384  37.2388297
   8.9185696  11.0855558  37.9020958  13.7792817  19.0202694  23.5138871
  13.8612654  19.8269681  23.1900321  14.2642559  19.0398654  24.2379644
  13.8629975  19.1423357  23.5725769   7.5889320  13.6987530  32.1808948
   7.1651569  13.8992029  31.4447967   7.4134175  12.8516378  32.2933248
   7.5000201  13.6036312  32.0882639   7.0901014  25.2138043  34.6430406
   7.5796944  24.5148833  34.4606070   6.5185246  24.9161913  35.2306463
   7.0785544  25.0664267  34.7031447   2.8771765  14.1939582  27.6136921
   3.0336384  14.1286385  28.4692913   3.2172358  14.9688134  27.4015601
   2.9505000  14.2988780  27.7091515   9.4150910  13.5697465  26.4830284
   9.9566455  13.0667847  26.9468905   9.7297469  13.5162660  25.6719769
   9.5415307  13.4876886  26.4314096  13.2868017  17.7800113  43.5957196
  14.1002883  17.5085262  43.7562329  13.1262984  17.4807653  42.7917392
  13.3837966  17.6955039  43.5002602   7.5837360  18.9614817  23.7670312
   7.6530180  18.1029355  23.9063313   8.3625815  19.1786698  23.4389337
   7.7090210  18.8667681  23.7387470  10.5640179   8.4633770  36.5352585
  10.7782149   7.8244684  35.9815939   9.9474078   8.9079594  36.1060446
  10.5045508   8.4343914  36.3903016  11.9744847  21.3852518  27.9806806
  11.5824639  21.0819233  27.2629672  12.1297919  22.2221608  27.7911759
  11.9398437  21.4636355  27.8463303  12.7279267  10.0722835  37.4735892
  11.9155949   9.7648725  37.5549064  13.1869202   9.5921835  38.0378604
  12.6759652   9.9559327  37.5690486  12.1384522  17.9502507  27.9212836
  11.7799177  18.1217150  28.6976869  11.6523233  18.4115713  27.3640835
  12.0143219  18.0441478  27.9538105   9.9554908   1.5733706  31.5239927
   9.0848466   1.5472427  31.4773237  10.2095249   1.4010898  30.7065773
   9.8648468   1.5443849  31.3960064   6.9272887  13.6301672  20.4613070
   7.2165412  14.4066555  20.7356645   7.0144686  13.1190404  21.1627570
   6.9827144  13.6693591  20.6055568   9.0496282   4.1232894  34.8106250
   8.6628035   4.1481926  35.5919780   8.5629219   3.5574573  34.3580767
   8.9208791   4.0428645  34.8594154  13.2989261  18.8406403  38.8680037
  13.9368982  18.3466599  38.5342493  12.6563353  18.7683804  38.2832264
  13.2983488  18.7565412  38.7322392  15.0246261  10.6895549  33.4345953
  14.5973869  10.6021898  32.6794052  14.3872314  10.7973325  34.0200797
  14.8675869  10.6928209  33.4091394  13.3543518  19.5326211  35.5085394
  14.1435896  19.1815276  35.6287475  13.5287116  20.3462600  35.2462028
  13.4963799  19.6012068  35.4873262   3.0936828  12.9434937  32.5613183
   2.2524835  12.8438811  32.7692076   3.3026836  13.7130417  32.9127503
   3.0001521  13.0426980  32.6440497  12.2077342   3.5435768  30.0701812
  12.4126935   3.4758076  30.9158809  11.8803766   4.3494589  30.0022990
  12.1892590   3.6521708  30.1861467   6.9053493  10.8716336  31.8110780
   6.6016631  10.3172325  32.4121188   6.2032914  11.0508546  31.3238814
   6.7569703  10.8161119  31.8280486   5.9619590   8.1816856  26.3755482
   6.2379325   7.4635769  25.9633049   6.5618260   8.7801776  26.1676588
   6.0912855   8.1637227  26.2836243   4.9671844  18.0866057  36.5182878
   4.8592199  18.0968119  37.3844936   5.1767626  18.9120837  36.3287832
   4.9821955  18.2107132  36.6186969  15.4611030   4.0967532  29.5504578
  14.8485343   4.5837934  29.9358309  15.5575205   3.4211023  30.0942229
  15.3848927   4.0685841  29.6883436   9.4630111   5.8530373  24.6502077
   9.9173857   6.0240934  25.3749921   9.9370156   5.2398484  24.2499853
   9.5998431   5.7881259  24.6975839   2.9845636  15.3378699  33.9804815
   2.3933569  15.9788198  33.9507831   3.7466660  15.7616317  33.9536115
   3.0093897  15.4954538  33.9719963   3.3806259   6.4980697  34.6472833
   3.8407740   6.5719627  35.3847957   3.4262366   7.2961951  34.2972654
   3.4556814   6.6274844  34.7045590  19.1036058  15.1684469  34.9782094
  19.1619181  15.6171118  35.7242070  18.4702525  15.5783282  34.5412174
  19.0187353  15.2958204  35.0234642  12.7435152  20.7888011  31.4136840
  12.5454841  21.2778825  30.7193051  12.1222863  20.9929252  31.9920973
  12.6222717  20.8904549  31.3960063   6.8043131  12.5572908  25.7547084
   7.5485176  12.9447184  25.9930034   6.9503827  11.7130333  25.9187572
   6.9353716  12.4903381  25.8141054   8.7222706   4.3523167  30.7878946
   7.8758751   4.5245974  30.6620295   8.7193839   3.5472510  31.1244774
   8.5969856   4.2584196  30.8190073   9.7921007   8.1298381  31.6541004
   9.3180961   7.6040143  32.1646314  10.1639142   7.5827854  31.0855865
   9.7770895   7.9714378  31.6456151  16.0557737  13.1900757  33.0647784
  15.8155960  12.3507172  33.0690210  16.5349744  13.2700923  33.7888558
  16.0909921  13.0782156  33.1722586  11.7204506   9.0234936  24.7166757
  11.1927525   9.1063680  24.0272466  12.1800214   9.7652807  24.7131402
  11.7106357   9.1455598  24.6141452  18.0562924   9.9702214  31.0177043
  17.8172694   9.9298048  30.1797828  18.2196825  10.8173366  31.1442764
  18.0453228  10.0894299  30.9130525  14.6608954  14.3552163  36.9482088
  15.3843153  13.9024690  36.7693108  14.3958917  14.6356829  36.1654416
  14.7290228  14.3303132  36.8060804   3.5295823   8.9512337  33.6834967
   2.9048893   8.9630729  33.0760920   3.1941418   9.4272512  34.3326208
   3.3881315   9.0230854  33.6891536   3.7137571   7.2937455  19.7407652
   3.3650376   7.9457181  20.2039202   3.2334017   7.2794568  19.0131524
   3.5907815   7.3880509  19.7018744  11.2741589  17.5938499  23.8476414
  11.9975788  18.0596612  23.7040988  10.8342180  17.6612109  23.0974011
  11.3157281  17.6722336  23.7161196  10.4427744  14.4536041  35.0977103
   9.8284737  13.9094092  35.3925739  10.9595029  13.9400278  34.6182919
  10.4283406  14.2972451  35.0701332   9.6824041  15.5240312  32.8321402
   9.2551649  14.8990030  32.3986837   9.6748985  15.2415233  33.6580409
   9.6183182  15.3893092  32.8901230   2.7986568  10.5605485  35.9009836
   2.9580055   9.8048809  36.3061558   2.6179462  11.1096424  36.5550574
   2.7951927  10.5299298  36.0572542   8.0109751   6.4009066  33.0463936
   8.0352238   5.8669178  32.3576716   8.2621224   5.8926375  33.7089527
   8.0519669   6.2469970  33.0428581   4.2911073   5.1279884  32.4269680
   4.3309444   5.6289091  33.1404388   3.4660738   5.2190278  32.1575603
   4.1750599   5.2161701  32.4920219   6.4740686  14.6940624  40.5289975
   5.6236316  14.8312339  40.6647620   6.6368813  13.9604403  40.9737677
   6.3724549  14.6054726  40.6145574   5.7125436  11.6440394  34.7243579
   4.8817366  11.8114212  34.5178827   5.6576953  11.2676345  35.5092465
   5.5814851  11.6130125  34.8092107   4.0861480   9.9195986  25.2533697
   4.2264441  10.4168450  25.9562338   4.5844013   9.2182280  25.3947911
   4.1802561   9.8897964  25.3785276   4.1161702  10.7863097  22.5826274
   4.7506782  11.3823522  22.5175736   4.1987313  10.4866554  23.3972144
   4.2218253  10.8304005  22.6929360  17.0944268  13.3178574  35.4512638
  17.6862109  13.9575825  35.4830836  17.5303263  12.6201611  35.7404705
  17.2462699  13.3096924  35.4993471   5.6940685   6.7177072  22.5571716
   6.0156526   6.2380155  21.9030978   5.9567629   7.5276718  22.3662527
   5.7806711   6.7666970  22.4327208   8.9237658  17.7395946  36.0770532
   8.4162749  18.2931793  36.5211162   8.6264304  17.8004236  35.2589306
   8.8042543  17.8302258  36.0218989  11.0899840   6.1049266  34.9195195
  11.5154912   5.6521792  34.3078721  10.4756833   5.5509337  35.1959982
  11.0628486   5.9563242  34.8700220   0.6214690  12.9830937  25.8515820
   1.1306920  13.5795445  26.2327125   1.0948963  12.7156911  25.1692239
   0.7658066  13.0316753  25.8070343  11.5345438  21.6559204  24.0074475
  10.8174748  21.4820066  23.5421713  12.1852176  21.4211776  23.4749961
  11.5247289  21.5954997  23.8603693   9.5294063   2.5764366  28.3285772
   8.8862381   2.4262012  28.8970910   9.1893470   2.3306711  27.5634877
   9.3839140   2.5176488  28.2988787  14.1193410  10.5323793  27.7515781
  13.4484599  11.0753495  27.6228846  14.8133160  11.0018648  27.5097475
  14.1222277  10.6822064  27.6971308   8.1680143  22.6720505  32.9827539
   7.9445798  21.9139334  33.3511565   7.6789987  22.7018526  32.2607979
   8.0623592  22.5642729  32.9304280  14.2821537   6.9879676  30.6606154
  14.6349147   6.5609399  31.3351952  13.4236339   6.9030520  30.7907230
  14.2070982   6.9124417  30.7801164   2.9805222   9.6187196  28.7189000
   2.2617211  10.0351329  28.9861864   3.3517584  10.1841435  28.1680638
   2.9297154   9.7636477  28.6771807  12.2804803  10.2515045  34.6090996
  12.2602730  10.0698340  35.4625775  12.3284004  11.1227063  34.5850580
  12.2839444  10.3531583  34.7314291  10.2251133  16.8402237  40.5339473
  10.1846988  16.1951914  39.9484628  11.0374451  16.7838854  40.8464885
  10.3394286  16.7361204  40.4936422   6.8158600  22.8920963  30.4364623
   6.4018999  22.2295093  30.0468465   7.5005975  23.0398822  29.9160318
   6.8556972  22.8161621  30.3021121  10.1823894  22.0511048  31.1888240
   9.7840178  22.1613318  30.4209060   9.5675114  22.2593114  31.7714800
  10.0322784  22.0984616  31.1619539   8.7551796   8.6585196  24.0562380
   8.1616636   8.9802192  23.5046947   8.7927074   7.8126291  23.8483486
   8.6726186   8.5809524  23.9445151  15.7145597   2.1098088  31.5890466
  15.2076462   1.4027228  31.5211644  16.5113031   1.7791277  31.7191543
  15.7572836   1.9571240  31.5989461  11.6309613   8.6164700  27.4864130
  11.4023306   8.6397402  26.6442488  11.8907689   7.7922167  27.6059141
  11.6355801   8.4980780  27.3789328   4.6854376   7.1541247  28.7818326
   5.1611742   7.5158327  28.1468507   4.1842975   7.8097714  29.0618468
   4.6819735   7.3035435  28.7295067  17.9165737  16.6263015  24.5731331
  18.2999343  17.3754371  24.8029428  17.1209850  16.8728834  24.3143320
  17.8559519  16.7732709  24.5688904   6.7281029   9.2982447  22.1491710
   7.1079994   9.3162076  21.3642824   5.9873625   9.7436435  22.0282557
   6.6749866   9.3664221  22.0155278  14.3566319   7.6064638  27.7367288
  14.3560546   7.4513294  28.5951565  14.1522499   8.4527625  27.6808674
  14.3266097   7.7085258  27.8555228  12.0807171  12.2862140  31.3903495
  12.5760837  11.5685135  31.3507515  11.2706947  11.9832937  31.2757982
  12.0351065  12.1359786  31.3677221   7.5265783  16.1359953  23.5400500
   6.7177105  15.8126626  23.4933809   8.0340692  15.4293175  23.4728748
   7.4815450  15.9841269  23.5230794  14.1458990  15.0365827  34.0780624
  14.5714062  14.5140249  33.5251049  13.7815910  15.6346664  33.5569247
  14.1545593  15.0476054  33.9189634   3.7813070  23.3330045  32.8377969
   4.0959629  24.1466433  32.8455751   4.1906483  22.9480263  33.5060129
   3.8881168  23.3958747  32.9382061  10.7337590  18.7500091  30.4081781
  11.2048768  19.4640354  30.5771767  11.0697768  18.1498841  30.9441651
  10.8532705  18.7671556  30.5114157  12.8214574  20.3601405  42.5873853
  12.9311540  19.5709965  42.9430601  13.1505471  20.2707341  41.7848192
  12.8866980  20.2307258  42.5216244  11.3711536  18.5418025  37.1709474
  10.8232482  17.9175909  36.9029539  11.8324565  18.7312297  36.4553553
  11.3578745  18.4777076  37.0259905  14.1805400   6.6103380  34.5560666
  13.5968389   7.1112586  34.1438234  14.5009694   6.1032936  33.9224990
  14.1418576   6.6095215  34.4019174   6.7200199   5.5243975  24.8319341
   7.5415894   5.6942288  24.5901036   6.2569850   5.6791236  24.1085639
   6.7731362   5.5725708  24.6890985   1.1226090  17.2803153  32.4856578
   1.7270947  17.2398987  31.8570399   0.9153403  18.1274305  32.5160634
   1.1814987  17.3991155  32.3972694  10.9369862  19.5469098  33.7018815
  11.7568236  19.4032064  33.9635110  10.6563940  20.1715297  34.2435253
  11.0166606  19.6179450  33.8206755  14.9924337  35.8272319  27.1851854
  14.2407237  35.4487857  26.9567899  15.4410349  35.8590752  26.4370664
  14.9474004  35.7757926  27.0409356  23.9176914  32.5596126  41.0275078
  24.6243681  32.0648157  41.1562013  24.1064849  33.0005208  40.2977736
  24.0504820  32.5514477  40.9384124  20.4449297  36.2497688  22.6137401
  20.1100665  36.9274610  22.1781623  20.9576167  35.8602999  22.0254272
  20.4714878  36.2922266  22.4624192  19.9853588  38.2011957  28.5548512
  20.3692968  38.7698856  28.0153287  19.9212730  37.4761467  28.0754328
  20.0327016  38.1787420  28.4042375  23.4535018  28.3501645  34.0646274
  23.9990978  29.0286731  34.1240243  23.3951895  28.2089106  33.2047855
  23.5250933  28.4293646  33.9458334  16.5709093  35.8390711  29.4514626
  16.6719456  35.0291065  29.7611754  15.9750839  35.7447657  28.8214305
  16.4981632  35.7055739  29.4040865  16.4109833  40.7568300  30.8529482
  17.0547288  41.1981464  31.2425641  16.7366088  39.9521726  30.7659741
  16.5541662  40.7033495  30.8974959   9.7674138  31.8610997  29.0766960
   9.5324322  31.0278650  28.9699229   9.9059778  32.1415663  28.2628161
   9.7529800  31.7794501  28.9409315  12.0664225  24.0296728  31.9751267
  11.4469257  23.4389375  31.8061282  11.9648089  24.6208163  31.3415591
  11.9601901  24.0300811  31.8556257  11.7933358  27.5749010  34.2194836
  11.6692055  28.1611455  34.8544655  12.4451643  27.0809205  34.5207111
  11.8707007  27.5887814  34.3580766  16.8191699  30.7510727  33.4982348
  17.4640702  30.2583170  33.1793296  17.0593476  30.8935513  34.3248426
  16.9502284  30.6988169  33.5731881  19.3577790  33.5965633  33.1489240
  19.6401033  32.8017038  32.9275996  20.0863951  34.0746220  33.1694301
  19.5067354  33.5500229  33.1192255  29.3395879  32.7024995  30.1225071
  28.5093582  32.9135638  30.2858487  29.2905131  31.8762049  29.8467354
  29.2102614  32.6114601  30.1062436  11.3291462  36.7396668  30.3523166
  10.8459041  37.4647158  30.3282749  12.1414781  37.0372798  30.4633324
  11.3782210  36.8899022  30.3650445  17.4005616  35.5328849  32.9572980
  16.8832558  35.1736264  32.3534288  18.0980008  35.0091023  32.9679046
  17.4271197  35.4026537  32.8703239  21.0569208  35.9823663  38.9189153
  21.1452554  35.7949803  39.7667364  21.4858921  35.3361093  38.5194000
  21.1331311  35.8586671  38.9860905  18.6239668  35.2654823  37.9006816
  18.0610503  34.8527433  38.4246477  19.3860692  35.1907729  38.3199959
  18.6534117  35.1932223  38.0399816  15.5414938  19.2000955  25.8727953
  16.2960906  19.5679272  25.6345003  15.3642473  19.5740509  26.6407132
  15.6269417  19.3099143  25.9512841  14.1835660  37.2552844  30.5043446
  14.8856239  36.7404833  30.5616202  14.1033143  37.5826995  31.3090321
  14.2759420  37.2267070  30.6316238  15.2314566  27.4928431  39.6323861
  15.4035070  27.3834326  40.4809142  15.7683924  28.1382836  39.3955053
  15.3359570  27.5720433  39.7228958  13.8972003  21.6071274  22.5706066
  13.7147576  21.8243155  21.7447059  14.7597616  21.7210287  22.6264680
  13.9976592  21.6561172  22.4560553  13.5086435  33.4459196  30.0129054
  14.3475334  33.6782129  30.0602815  13.5398204  32.5763508  29.9436089
  13.6368153  33.3516143  30.0093698  14.1339138  33.8660071  34.3142359
  14.6737363  33.7231202  34.9845732  13.4509084  34.2656822  34.6826386
  14.1131292  33.9039742  34.4676781  23.5580023  29.5451072  29.5087384
  24.3137538  29.9782586  29.5476292  23.6642347  28.8955842  30.0822020
  23.6850193  29.5128556  29.5985409  26.5960194  33.3724349  30.2589787
  26.1595426  33.3761092  31.0148758  26.2623109  34.0529848  29.8269364
  26.4822814  33.4736805  30.3070619  21.1689268  35.4132682  41.5832937
  21.9529684  35.5263530  41.9488679  20.9685862  34.5873819  41.7791623
  21.2555293  35.3079401  41.6667323   9.5376283  30.0860362  34.4676781
   9.2714698  29.2699479  34.6267771   9.5514847  30.1313518  33.5972296
   9.5001005  29.9717267  34.3630263  14.2874889  23.6238740  37.1143789
  13.5946686  23.1535720  37.3604520  14.9035217  23.3977045  37.6885496
  14.2759419  23.5205872  37.2352941  21.3259661  37.3242784  35.2299393
  20.5274907  37.0842284  35.4873261  21.7745672  37.3757177  35.9766440
  21.2734272  37.2965175  35.3784317  29.7304540  30.0905269  29.1509424
  30.3920974  29.5295938  29.0505332  29.0895952  29.5957300  29.4762115
  29.7333408  29.9341678  29.1841764   9.9469697  30.8719142  31.7488525
   9.7645270  30.8466028  30.8960817  10.6819366  31.3418079  31.7877434
  10.0283761  30.9380504  31.6286444  13.0115448  27.5904144  38.2570634
  13.7355421  27.5757175  38.7435528  13.1131585  28.2999500  37.7592602
  13.1333657  27.6928848  38.2549421  20.3860398  31.0703229  43.1219581
  19.5933379  31.3846741  43.3072200  20.5009325  31.2854697  42.2840365
  20.2855808  31.1487066  43.0257916  21.3144191  30.9723433  38.0604877
  21.8883052  30.3350677  38.2153441  21.2358994  30.9727515  37.1914535
  21.3877425  30.8788544  37.9551288   9.9140607  27.7512642  31.8987592
  10.4914110  27.6149093  32.5379837   9.2154669  27.2948426  32.1533176
   9.8961628  27.6634908  32.0309881  16.6707909  29.4046698  30.1126075
  16.4127153  28.5718433  30.0857374  16.7256392  29.6304311  29.2718575
  16.6407687  29.3144469  29.9846212  15.6442621  26.9584460  30.5990970
  15.0692213  27.1176629  31.2354931  15.2678298  26.3219869  30.1359420
  15.5045434  26.8882273  30.6245528  19.3115910  25.4307810  35.4583348
  18.9230343  25.0062027  34.8035539  18.6470608  25.6789959  35.9660375
  19.1562838  25.4046531  35.4371216   5.3899440  26.6024535  28.6135410
   5.4759692  26.2256403  29.3948940   6.0175238  26.2284981  28.1355369
   5.4955991  26.4910017  28.6580888  26.6364338  32.3432410  38.0689731
  26.4002976  31.5120475  37.9501791  27.2807567  32.2918018  38.6544575
  26.6959009  32.2130098  38.1375624  16.2862757  33.1327932  28.7832467
  16.9236703  32.8939679  29.3284260  16.7117828  33.3365091  28.0485628
  16.4438923  33.1278942  28.7549624  10.9775399  35.3716268  32.6666771
  11.0179544  35.6431119  31.8386550  11.5369923  35.8958176  33.0824559
  11.0658745  35.4892023  32.6058659  17.0934112  21.6336637  42.8369941
  16.7787553  22.4036199  42.5739503  16.7724045  21.0706893  42.2522168
  16.9993031  21.6646905  42.7111291  27.6600759  32.1276859  34.1318025
  27.3546576  32.8604916  34.4931341  26.9406975  31.7214789  33.8510811
  27.5088101  32.1758592  34.1431162  18.6684228  33.6100354  30.4626253
  18.7423237  33.4475526  31.3168103  19.4853735  33.7990544  30.2186735
  18.8000587  33.6137097  30.5524279  33.3602551  28.7669860  33.4586369
  33.2927051  28.7865819  32.5888956  33.3458214  29.6100187  33.6842040
  33.3481308  28.8943594  33.3638846  12.4289985  33.9558217  27.4920697
  11.6028103  34.2019954  27.3654976  12.4901976  33.8770298  28.3582755
  12.3164152  33.9803166  27.6009641  14.6466009  20.0227158  28.4516137
  13.7788434  20.0949758  28.5173746  14.9341213  20.8249237  28.6404112
  14.5605757  20.1521305  28.4890904  17.7983559  31.3752843  36.2792857
  17.2995253  32.0868611  36.3577746  18.6083784  31.6953510  36.2411020
  17.8439666  31.5279692  36.2849426  15.1494730  38.5502480  28.2599876
  14.9295025  38.2599834  29.0526543  14.9289252  37.8917435  27.7317789
  15.0842324  38.4102188  28.2988785  14.0611677  30.6375796  30.5255578
  13.7724926  30.0113268  31.0601305  14.9295025  30.5796084  30.5920259
  14.1471929  30.5363340  30.6146533  17.3162685  39.9231870  27.0430569
  17.9686744  39.3908312  27.2721595  16.6188294  39.5700522  27.4298443
  17.3093403  39.7921393  27.1342737  14.2643950  32.2771047  26.4497943
  15.0189918  32.6584086  26.6633406  13.6714563  32.7282191  26.9044640
  14.2880664  32.3999875  26.5480822  16.7250617  24.2333888  41.5755156
  15.9150393  24.5391667  41.4644998  17.2025304  24.9539470  41.6907740
  16.6754096  24.3848489  41.5762227  15.5842177  33.4479609  31.8238059
  15.0622930  33.5879900  32.5089923  15.9716197  32.6890273  32.0140176
  15.5645878  33.3565132  31.9539135  12.5733361  23.4985417  25.8933013
  12.2858157  23.1286688  25.1564961  13.2603829  23.9680273  25.6316718
  12.6322258  23.5132387  25.7448089  15.4087033  27.3638366  27.3400418
  16.1309684  27.5279524  26.8804224  14.9295025  28.0848030  27.2339758
  15.4450763  27.4936595  27.2566032  13.0594649  29.7696438  36.4454558
  13.5715746  30.0480691  35.7963318  12.7730992  30.5085732  36.8117371
  13.0929512  29.9198792  36.4044436  10.1461556  24.2766630  26.7418294
  10.2477692  25.0792791  27.0699270  10.9417442  24.0753966  26.4441375
  10.2789461  24.3652529  26.7453650  16.5778375  21.8622827  36.5055599
  16.3861572  21.8777961  37.3555023  17.4276971  22.0586501  36.4822254
  16.6754097  21.8937178  36.6278894  10.9625288  24.3913808  34.4839416
  10.8210779  23.5397749  34.6083924  11.2465851  24.4342469  33.6601622
  10.9833134  24.2713558  34.3807040  25.0111929  32.9364258  32.4170685
  24.8726288  33.6345303  32.9219428  24.2311927  32.7812914  32.0606867
  24.8755156  33.0164424  32.4396960  23.3490014  29.2360633  38.6693067
  23.3438052  28.3640449  38.6735494  24.0551008  29.4348802  38.1962523
  23.4535018  29.1364507  38.6000103  17.0760907  28.9637617  38.0406887
  17.2204283  29.5438825  37.4049997  17.4236556  29.3413914  38.7456742
  17.1488369  29.1058321  38.0505882  19.2480825  28.1627785  35.8232019
  18.5004139  28.3558800  35.4180297  19.4022350  27.3373005  35.5856140
  19.1603252  28.0692897  35.7277425  16.1488662  37.1540389  34.9067914
  16.2978226  36.5943305  34.2541319  16.9288664  37.2332390  35.2900433
  16.2862756  37.0825954  34.8664863  18.6741963  37.3255032  36.1852405
  18.5985634  36.6563842  36.7403193  18.6031822  38.0272820  36.6993071
  18.6522570  37.3299939  36.3429253  19.4882602  22.0578336  36.7127423
  19.9455216  22.7902310  36.8400215  19.5638930  21.6344801  37.4714678
  19.5673572  22.1035574  36.8428499  11.7315593  22.3044156  37.8016866
  11.1957782  21.6924514  38.1177634  11.7933358  22.8792292  38.4550533
  11.6611226  22.2991083  37.9452293  17.3664980  24.0480440  33.5569247
  16.5761054  23.8671900  33.8786582  17.7625602  23.2707392  33.5399541
  17.3081856  23.9067901  33.6021795  22.7508666  31.6822870  31.2828693
  22.0753668  31.4508102  31.7842080  22.7601042  31.0744053  30.6570798
  22.6527170  31.5581795  31.2644845  19.8802810  26.5240699  38.0392746
  19.8161951  27.3850655  37.9112882  20.0199998  26.2072692  37.2388297
  19.8918280  26.6040866  37.9020958  18.5621904  29.2172838  32.1808948
  18.1384153  29.4177337  31.4447967  18.3866759  28.3701686  32.2933248
  18.4732784  29.1221620  32.0882639  18.0633597  40.7323351  34.6430406
  18.5529528  40.0334141  34.4606070  17.4917830  40.4347221  35.2306463
  18.0518127  40.5849575  34.7031447  24.2600601  33.2985421  43.5957196
  25.0735466  33.0270570  43.7562329  24.0995567  32.9992961  42.7917392
  24.3570549  33.2140347  43.5002602  21.5372763  23.9819078  36.5352585
  21.7514732  23.3429992  35.9815939  20.9206662  24.4264902  36.1060446
  21.4778092  23.9529222  36.3903016  22.9477431  36.9037826  27.9806806
  22.5557222  36.6004541  27.2629672  23.1030503  37.7406916  27.7911759
  22.9131021  36.9821663  27.8463303  10.4238610  26.8959840  27.9297688
  10.8037575  27.3144385  27.2657955   9.8493975  27.4773296  28.2366531
  10.3949935  27.0437699  27.8774429  23.7011851  25.5908143  37.4735892
  22.8888532  25.2834033  37.5549064  24.1601785  25.1107143  38.0378604
  23.6492236  25.4744635  37.5690486  23.1117105  33.4687815  27.9212836
  22.7531760  33.6402458  28.6976869  22.6255816  33.9301021  27.3640835
  22.9875802  33.5626786  27.9538105  20.9287491  17.0919014  31.5239927
  20.0581049  17.0657735  31.4773237  21.1827833  16.9196206  30.7065773
  20.8381052  17.0629157  31.3960064  20.7965358  26.9968214  42.2564594
  21.2664989  27.6210331  42.6432468  20.8427238  26.3285190  42.8157809
  20.8733234  26.9902895  42.3964665  17.9536632  19.1025242  32.9813398
  17.4375120  18.4105433  33.1064977  17.3930561  19.7696019  32.9275997
  17.7943145  19.0988500  32.9919464  20.0228865  19.6418202  34.8106250
  19.6360618  19.6667233  35.5919780  19.5361803  19.0759881  34.3580767
  19.8941374  19.5613953  34.8594154  24.2721845  34.3591711  38.8680037
  24.9101565  33.8651907  38.5342493  23.6295936  34.2869111  38.2832264
  24.2716071  34.2750719  38.7322392  19.6886007  16.5285188  37.1016510
  20.3179125  17.0645488  36.8237581  19.8571870  16.4362546  37.9530076
  19.8063802  16.5946550  37.1865038  19.4899922  21.3156382  39.3742922
  20.3173351  21.0441531  39.4301536  19.5107768  22.1117224  39.7306740
  19.6152772  21.3936136  39.4358105  24.3276101  35.0511519  35.5085394
  25.1168480  34.7000584  35.6287475  24.5019699  35.8647908  35.2462028
  24.4696383  35.1197376  35.4873262  14.0669412  28.4620245  32.5613183
  13.2257418  28.3624119  32.7692076  14.2759420  29.2315725  32.9127503
  13.9734104  28.5612288  32.6440497  11.5444979  26.0839782  30.3897933
  11.1501676  26.1582794  29.6148043  10.9885096  26.4697728  30.9406295
  11.4047791  26.1521557  30.3565593  17.8786077  26.3901644  31.8110780
  17.5749214  25.8357632  32.4121188  17.1765497  26.5693854  31.3238814
  17.7302286  26.3346427  31.8280486  16.9352174  23.7002164  26.3755482
  17.2111908  22.9821077  25.9633049  17.5350843  24.2987084  26.1676588
  17.0645438  23.6822535  26.2836243  15.9404428  33.6051365  36.5182878
  15.8324783  33.6153427  37.3844936  16.1500209  34.4306145  36.3287832
  15.9554539  33.7292440  36.6186969  13.9578220  30.8564007  33.9804815
  13.3666153  31.4973505  33.9507831  14.7199243  31.2801625  33.9536115
  13.9826480  31.0139846  33.9719963  14.3538842  22.0166005  34.6472833
  14.8140324  22.0904934  35.3847957  14.3994949  22.8147259  34.2972654
  14.4289398  22.1460152  34.7045590  16.0022192  22.6832700  39.2144860
  15.6107757  22.0366047  39.6500638  16.1708055  23.2744135  39.8339116
  15.9693103  22.6746968  39.3707566  30.0768641  30.6869777  34.9782094
  30.1351765  31.1356426  35.7242070  29.4435109  31.0968590  34.5412174
  29.9919936  30.8143512  35.0234642  23.7167736  36.3073319  31.4136840
  23.5187425  36.7964133  30.7193051  23.0955447  36.5114560  31.9920973
  23.5955300  36.4089857  31.3960063  11.1426620  25.6455196  37.0224549
  12.0052233  25.5450905  36.9361879  10.8118403  25.0649905  36.4610121
  11.2211817  25.5446822  36.9269955  25.6341538  29.8737471  36.9482088
  26.3575737  29.4209998  36.7693108  25.3691500  30.1542137  36.1654416
  25.7022811  29.8488440  36.8060804  14.5028406  24.4697645  33.6834967
  13.8781476  24.4816037  33.0760920  14.1674001  24.9457820  34.3326208
  14.3613898  24.5416162  33.6891536  11.2154082  32.5298105  35.1238732
  10.6854006  31.8390544  35.1733707  11.4879175  32.5208290  34.2951440
  11.1778804  32.4265237  35.0086148  21.4160327  29.9721349  35.0977103
  20.8017320  29.4279400  35.3925739  21.9327612  29.4585586  34.6182919
  21.4015990  29.8157758  35.0701332  20.6556625  31.0425619  32.8321402
  20.2284233  30.4175338  32.3986837  20.6481569  30.7600541  33.6580409
  20.5915766  30.9078400  32.8901230  13.7719152  26.0790792  35.9009836
  13.9312638  25.3234117  36.3061558  13.5912045  26.6281732  36.5550574
  13.7684511  26.0484606  36.0572542  21.7139455  18.2452028  36.4560625
  21.2180016  18.4415702  35.7652192  22.4708517  18.6444696  36.2849427
  21.7526279  18.3329762  36.3280762   6.4949924  29.2025869  32.4807080
   6.3893373  29.1572713  31.6159164   5.7450144  29.5479650  32.7621365
   6.3685527  29.2466777  32.3944410  15.2643656  20.6465192  32.4269680
  15.3042028  21.1474399  33.1404388  14.4393321  20.7375586  32.1575603
  15.1483182  20.7347009  32.4920219  17.4473269  30.2125932  40.5289975
  16.5968900  30.3497646  40.6647620  17.6101397  29.4789710  40.9737677
  17.3457133  30.1240033  40.6145574  16.6858020  27.1625702  34.7243579
  15.8549949  27.3299520  34.5178827  16.6309537  26.7861653  35.5092465
  16.5547435  27.1315433  34.8092107  14.4941803  20.6534595  40.3599990
  15.1194506  20.1096728  40.6329422  14.0392283  20.1729513  39.7907780
  14.5190064  20.5024076  40.3161584  15.0594064  25.4381294  25.2533697
  15.1997025  25.9353758  25.9562338  15.5576596  24.7367588  25.3947911
  15.1535145  25.4083272  25.3785276  19.8970242  33.2581254  36.0770532
  19.3895333  33.8117101  36.5211162  19.5996888  33.3189544  35.2589306
  19.7775127  33.3487566  36.0218989  22.0632424  21.6234574  34.9195195
  22.4887495  21.1707100  34.3078721  21.4489417  21.0694645  35.1959982
  22.0361069  21.4748550  34.8700220  11.5947274  28.5016245  25.8515820
  12.1039503  29.0980753  26.2327125  12.0681546  28.2342219  25.1692239
  11.7390650  28.5502061  25.8070343  22.5078022  37.1744512  24.0074475
  21.7907332  37.0005374  23.5421713  23.1584760  36.9397084  23.4749961
  22.4979872  37.1140305  23.8603693  20.5026647  18.0949674  28.3285772
  19.8594965  17.9447320  28.8970910  20.1626054  17.8492019  27.5634877
  20.3571724  18.0361796  28.2988787  19.1412727  38.1905813  32.9827539
  18.9178381  37.4324642  33.3511565  18.6522570  38.2203834  32.2607979
  19.0356176  38.0828037  32.9304280  13.9537806  25.1372504  28.7189000
  13.2349795  25.5536637  28.9861864  14.3250168  25.7026743  28.1680638
  13.9029737  25.2821785  28.6771807  23.2537386  25.7700353  34.6090996
  23.2335314  25.5883648  35.4625775  23.3016587  26.6412371  34.5850580
  23.2572027  25.8716891  34.7314291  21.1983716  32.3587545  40.5339473
  21.1579571  31.7137222  39.9484628  22.0107035  32.3024162  40.8464885
  21.3126870  32.2546512  40.4936422  17.7891184  38.4106271  30.4364623
  17.3751582  37.7480401  30.0468465  18.4738558  38.5584130  29.9160318
  17.8289556  38.3346929  30.3021121  21.1556478  37.5696356  31.1888240
  20.7572761  37.6798626  30.4209060  20.5407698  37.7778422  31.7714800
  21.0055367  37.6169924  31.1619539  16.8861425  25.9884481  37.0889230
  16.3740328  25.3805664  37.4474262  16.7140921  26.7041074  37.5563206
  16.7851062  26.0047781  37.2105454  11.7327140  24.4322057  39.7391592
  11.5629730  25.0923432  39.1939799  11.2893090  24.6428618  40.4604081
  11.6426473  24.5608039  39.7653221  20.7630495  23.9108726  39.5291486
  21.3201926  23.6822536  38.8969951  20.4391560  24.6714392  39.2526698
  20.7976906  23.9892563  39.3947983   8.6329204  27.3368922  34.9980082
   8.0855924  26.6669568  35.1160950   9.4221582  26.9698770  35.0623549
   8.6681388  27.1833909  35.0248782  18.4813613  26.9976379  40.4943493
  19.2324940  27.3128056  40.8083047  18.6736189  26.7955550  39.6677415
  18.6205027  27.0143761  40.4186889   7.3916174  26.5489730  32.1526105
   7.2137935  26.0966339  32.8781020   7.1035196  27.3515891  32.3364582
   7.3229127  26.6012288  32.2869608  23.0539755  27.8047447  31.3903495
  23.5493420  27.0870442  31.3507515  22.2439531  27.5018245  31.2757982
  23.0083648  27.6545094  31.3677221   9.1288644  29.0817454  29.2647864
   8.2634163  29.0703144  29.1530635   9.2287459  28.8947677  30.1119003
   9.0162811  29.0523515  29.3736808  25.1191574  30.5551135  34.0780624
  25.5446645  30.0325557  33.5251049  24.7548494  31.1531972  33.5569247
  25.1278176  30.5661362  33.9189634  14.7545653  38.8515352  32.8377969
  15.0692212  39.6651741  32.8455751  15.1639067  38.4665571  33.5060129
  14.8613751  38.9144055  32.9382061  21.7070173  34.2685399  30.4081781
  22.1781351  34.9825662  30.5771767  22.0430352  33.6684149  30.9441651
  21.8265288  34.2856863  30.5114157  23.7947158  35.8786713  42.5873853
  23.9044123  35.0895273  42.9430601  24.1238054  35.7892649  41.7848192
  23.8599564  35.7492565  42.5216244  18.6239668  19.0412870  37.3639876
  18.7567574  18.2443863  37.6920852  19.0084821  19.5679273  37.9438152
  18.6995997  19.0012786  37.4983379  22.3444119  34.0603333  37.1709474
  21.7965065  33.4361217  36.9029539  22.8057148  34.2497605  36.4553553
  22.3311329  33.9962384  37.0259905  21.6972023  15.9643196  33.9620969
  20.8917987  15.8540926  34.2788808  21.5678759  16.0655652  33.1050835
  21.5592156  15.9626866  33.8829010  16.2828115  19.0372045  35.6117770
  16.8272528  18.6963172  36.2022112  16.3365051  19.8957506  35.7539055
  16.3717234  19.1127304  35.7199643  12.0958674  32.7988461  32.4856578
  12.7003531  32.7584295  31.8570399  11.8885986  33.6459613  32.5160634
  12.1547571  32.9176463  32.3972694  21.9102446  35.0654406  33.7018815
  22.7300820  34.9217372  33.9635110  21.6296523  35.6900605  34.2435253
  21.9899189  35.1364758  33.8206755   7.3309956  31.7823078  32.3555501
   7.2334234  30.9719350  32.6645558   8.1138826  31.7614872  31.9701769
   7.4326092  31.6590169  32.3442364  38.3816096  42.7219258  26.6661692
  38.3510100  43.5763894  26.8379961  38.9797445  42.4214550  27.2247835
  38.4653254  42.8035754  26.7736494  31.5815781  41.8094909  31.4214622
  30.7253677  41.9703407  31.4723739  31.6283435  40.9386973  31.4419683
  31.4614892  41.7045711  31.4320688  31.4181881  51.7682996  22.6137401
  31.0833249  52.4459918  22.1781623  31.9308751  51.3788307  22.0254272
  31.4447462  51.8107574  22.4624192  34.4267602  43.8686953  34.0646274
  34.9723562  44.5472039  34.1240243  34.3684478  43.7274414  33.2047855
  34.4983516  43.9478954  33.9458334  36.2032671  45.2971560  24.9380001
  36.0872197  46.0479246  25.3672140  36.9988557  45.0395513  25.1876088
  36.3037260  45.3706407  25.0384093  20.7406721  47.3796305  29.0766960
  20.5056906  46.5463958  28.9699229  20.8792362  47.6600971  28.2628161
  20.7262384  47.2979809  28.9409315  23.0396809  39.5482036  31.9751267
  22.4201840  38.9574683  31.8061282  22.9380672  40.1393471  31.3415591
  22.9334484  39.5486118  31.8556257  28.0862996  49.2865583  26.2249344
  28.4078837  49.8270790  25.6210652  28.7335093  48.7162354  26.3571634
  28.2289051  49.2824758  26.1556379  30.1364704  41.2881578  26.3083731
  30.8344869  41.4669705  26.8005194  30.4517037  40.7651917  25.6854120
  30.2860041  41.2375350  26.2885741  22.7665942  43.0934318  34.2194836
  22.6424638  43.6796763  34.8544655  23.4184226  42.5994513  34.5207111
  22.8439591  43.1073122  34.3580766  30.3252640  47.6752023  26.2963522
  30.7646275  47.0669123  26.7418295  30.1757303  47.2959396  25.5248987
  30.3674105  47.5290494  26.2482689  27.7924283  46.2696035  33.4982348
  28.4373285  45.7768478  33.1793296  28.0326060  46.4120821  34.3248426
  27.9234868  46.2173477  33.5731881  30.3310374  49.1150940  33.1489240
  30.6133617  48.3202346  32.9275996  31.0596534  49.5931528  33.1694301
  30.4799938  49.0685537  33.1192255  28.3091568  36.6573974  30.3905005
  27.9794898  37.1085118  29.7208704  27.6336570  36.5790138  30.9378012
  28.1602004  36.7125110  30.3728228  33.9261976  46.0279204  23.2494291
  33.8413271  46.8840171  23.3943860  34.4146359  45.7523528  23.9176450
  33.9850873  46.1136525  23.3696373  35.5167976  32.6459497  28.6354616
  35.2021417  33.3362976  29.0675038  34.9994917  32.5904280  27.9340117
  35.3932446  32.7394386  28.5951565  34.8580409  42.6463998  24.7492026
  34.3291881  42.8623632  25.4089333  35.3805429  43.3400137  24.6692996
  34.8568862  42.7807135  24.8347626  26.7480017  46.5427215  23.5499494
  26.1637232  47.0477246  23.9565358  26.3450112  46.3169602  22.8096086
  26.6019321  46.5835463  23.5004520  28.3738200  51.0514157  32.9572980
  27.8565142  50.6921572  32.3534288  29.0712591  50.5276331  32.9679046
  28.4003781  50.9211845  32.8703239  31.2057232  42.7892867  22.0268415
  31.4453235  42.9970851  21.2143758  31.5273073  41.9850376  22.1357359
  31.2894390  42.7006968  21.9228968  39.8082421  40.8680703  33.9175492
  38.9710842  40.9382890  34.1523087  39.7770652  40.8705198  33.0449795
  39.6800703  40.8790930  33.8235040  26.2047150  43.0113739  39.6323861
  26.3767653  42.9019634  40.4809142  26.7416507  43.6568144  39.3955053
  26.3092154  43.0905741  39.7228958  24.8704587  37.1256582  22.5706066
  24.6880160  37.3428463  21.7447059  25.7330200  37.2395595  22.6264680
  24.9709176  37.1746480  22.4560553  24.4819019  48.9644504  30.0129054
  25.3207918  49.1967437  30.0602815  24.5130788  48.0948815  29.9436089
  24.6100736  48.8701450  30.0093698  25.1071722  49.3845379  34.3142359
  25.6469946  49.2416510  34.9845732  24.4241668  49.7842130  34.6826386
  25.0863875  49.4225050  34.4676781  30.5504306  34.1282993  25.6055090
  31.2790466  33.9498947  25.1593246  30.6399199  34.9701072  25.8162268
  30.6710968  34.2266871  25.5708607  34.5312606  45.0636380  29.5087384
  35.2870121  45.4967894  29.5476292  34.6374931  44.4141150  30.0822020
  34.6582777  45.0313864  29.5985409  37.5692778  48.8909657  30.2589787
  37.1328009  48.8946400  31.0148758  37.2355693  49.5715156  29.8269364
  37.4555397  48.9922113  30.3070619  20.5108867  45.6045670  34.4676781
  20.2447282  44.7884787  34.6267771  20.5247431  45.6498826  33.5972296
  20.4733589  45.4902575  34.3630263  37.4890260  35.9323485  32.5019215
  38.1316169  36.0021590  33.0881130  37.7413281  35.2652708  31.9998756
  37.6212393  35.8449834  32.5146494  24.4166614  40.4030754  21.0828539
  23.7024791  40.1168934  21.4950971  24.9010582  40.7427380  21.7234926
  24.3825977  40.4112404  21.2384174  25.2607473  39.1424048  37.1143789
  24.5679270  38.6721028  37.3604520  25.8767800  38.9162353  37.6885496
  25.2492003  39.0391180  37.2352941  40.7037124  45.6090577  29.1509424
  41.3653558  45.0481245  29.0505332  40.0628536  45.1142608  29.4762115
  40.7065991  45.4526986  29.1841764  31.5913931  48.9060708  21.4590347
  32.0065080  48.5745732  20.7674843  30.7605861  48.6729611  21.3310484
  31.5301940  48.8231964  21.3381195  20.9202280  46.3904449  31.7488525
  20.7377853  46.3651335  30.8960817  21.6551949  46.8603387  31.7877434
  21.0016344  46.4565812  31.6286444  36.9901954  46.6255959  28.8921413
  37.2257544  46.7701158  28.0648263  37.1391518  47.3898367  29.2852926
  37.0467758  46.7595014  28.8285017  23.9848032  43.1089452  38.2570634
  24.7088004  43.0942483  38.7435528  24.0864168  43.8184808  37.7592602
  24.1066241  43.2114156  38.2549421  38.8192411  45.4657625  26.7291016
  39.1500628  45.9985265  26.1231111  39.3925499  45.5196513  27.3852967
  38.9526090  45.5527194  26.7368798  34.0324300  43.3122528  27.4114597
  34.1271155  44.0511822  27.8654222  33.4083144  42.8840004  27.8449161
  33.9533330  43.3583849  27.5422744  32.2876774  46.4908741  38.0604877
  32.8615636  45.8535985  38.2153441  32.2091578  46.4912823  37.1914535
  32.3610009  46.3973852  37.9551288  20.8873191  43.2697950  31.8987592
  21.4646693  43.1334401  32.5379837  20.1887252  42.8133734  32.1533176
  20.8694212  43.1820216  32.0309881  34.2847322  45.1571268  20.6451549
  34.2027484  45.2273455  21.5106536  34.9227042  45.7201012  20.4535289
  34.3667159  45.2510239  20.7441498  27.6440493  44.9232006  30.1126075
  27.3859737  44.0903741  30.0857374  27.6988976  45.1489619  29.2718575
  27.6140271  44.8329777  29.9846212  32.7241543  37.0260456  30.2130168
  32.0197870  36.5369642  30.3714087  32.7726517  37.0382931  29.3418612
  32.6271595  36.9550104  30.1069507  26.6175205  42.4769768  30.5990970
  26.0424796  42.6361937  31.2354931  26.2410881  41.8405177  30.1359420
  26.4778017  42.4067581  30.6245528  30.2848494  40.9493118  35.4583348
  29.8962926  40.5247335  34.8035539  29.6203192  41.1975267  35.9660375
  30.1295421  40.9231839  35.4371216  39.9271763  40.7068122  28.2331178
  39.6708328  39.8948064  28.0429061  40.7701077  40.7145689  28.0061365
  40.0137788  40.5880120  28.1715995  16.3632024  42.1209843  28.6135410
  16.4492276  41.7441711  29.3948940  16.9907821  41.7470289  28.1355369
  16.4688575  42.0095325  28.6580888  34.1074855  34.6467746  32.9707332
  34.4885367  33.9645917  33.3575206  33.3038139  34.3577348  32.7882997
  34.0451317  34.5034795  33.0011388  31.3887432  45.1791722  23.6560155
  32.2028071  45.4706615  23.5442926  31.3246573  44.5251584  23.0818448
  31.4990171  45.1256917  23.5548992  27.2595340  48.6513240  28.7832467
  27.8969287  48.4124987  29.3284260  27.6850412  48.8550398  28.0485628
  27.4171506  48.6464250  28.7549624  27.8998155  43.8715529  23.1207356
  28.2843308  43.6523236  23.8723902  27.6509775  44.6978475  23.2508433
  27.9200228  43.9613676  23.2508433  28.0666696  37.1521945  42.8369941
  27.7520137  37.9221507  42.5739503  27.7456628  36.5892201  42.2522168
  27.9725615  37.1832213  42.7111291  38.6333343  47.6462167  34.1318025
  38.3279160  48.3790224  34.4931341  37.9139558  47.2400097  33.8510811
  38.4820685  47.6943900  34.1431162  29.6416812  49.1285662  30.4626253
  29.7155820  48.9660834  31.3168103  30.4586318  49.3175852  30.2186735
  29.7733171  49.1322405  30.5524279  25.6198592  35.5412466  28.4516137
  24.7521018  35.6135066  28.5173746  25.9073797  36.3434545  28.6404112
  25.5338341  35.6706613  28.4890904  34.7431481  35.6890325  36.7827459
  35.4885073  35.5000136  36.3690884  34.3268786  36.2148563  36.2241315
  34.7916455  35.7392471  36.6392032  42.1193752  43.0599554  31.7332964
  42.6701674  42.4267623  31.9730056  42.1037867  43.5914947  32.4248468
  42.1978948  43.0448502  31.8711822  28.7716143  46.8938151  36.2792857
  28.2727837  47.6053919  36.3577746  29.5816367  47.2138818  36.2411020
  28.8172250  47.0465000  36.2849426  25.0344261  46.1561104  30.5255578
  24.7457509  45.5298575  31.0601305  25.9027609  46.0981392  30.5920259
  25.1204512  46.0548648  30.6146533  35.8222158  41.2995888  30.8437560
  35.4786924  40.5786223  31.1944810  35.9215201  41.0909739  30.0015918
  35.7864201  41.1620091  30.7709240  25.2376534  47.7956355  26.4497943
  25.9922502  48.1769394  26.6633406  24.6447147  48.2467499  26.9044640
  25.2613247  47.9185183  26.5480822  36.2835187  47.7621592  26.3861548
  36.8493220  48.4214802  26.3020091  35.6363091  48.1071290  26.8577950
  36.2713944  47.9103533  26.4434305  27.6983201  39.7519196  41.5755156
  26.8882977  40.0576975  41.4644998  28.1757888  40.4724778  41.6907740
  27.6486680  39.9033797  41.5762227  26.5574761  48.9664917  31.8238059
  26.0355514  49.1065208  32.5089923  26.9448781  48.2075581  32.0140176
  26.5378461  48.8750440  31.9539135  23.5465945  39.0170725  25.8933013
  23.2590740  38.6471996  25.1564961  24.2336413  39.4865581  25.6316718
  23.6054842  39.0317695  25.7448089  32.7541766  50.7060376  25.8098627
  32.5128441  49.9728237  25.4025692  32.9343098  51.2547233  25.1564961
  32.7449389  50.6782767  25.6528850  27.9841086  45.9968936  27.2219550
  27.7883869  46.6043670  26.6279853  28.2075432  45.3036880  26.7411224
  27.9875727  45.9846461  27.0635630  26.3819616  42.8823674  27.3400418
  27.1042268  43.0464832  26.8804224  25.9027609  43.6033338  27.2339758
  26.4183347  43.0121903  27.2566032  34.3413124  39.2187472  32.7197103
  33.5024224  39.2448751  32.4835366  34.4117491  39.8658208  33.3002450
  34.2281517  39.3183598  32.7706220  24.0327233  45.2881746  36.4454558
  24.5448330  45.5665999  35.7963318  23.7463575  46.0271040  36.8117371
  24.0662096  45.4384100  36.4044436  32.7882402  36.1172849  27.4524719
  33.4908755  35.9180598  26.9744677  32.5226591  35.3448792  27.7593562
  32.8529034  35.9735815  27.4270160  38.2170648  44.4255459  30.0058345
  38.1304622  44.5810885  30.8593124  37.7621127  45.0693535  29.6317750
  38.1373904  44.5431214  30.0765451  21.1194139  39.7951938  26.7418294
  21.2210276  40.5978099  27.0699270  21.9150026  39.5939274  26.4441375
  21.2522045  39.8837837  26.7453650  27.5510958  37.3808135  36.5055599
  27.3594155  37.3963269  37.3555023  28.4009554  37.5771809  36.4822254
  27.6486680  37.4122486  36.6278894  21.9357871  39.9099116  34.4839416
  21.7943363  39.0583057  34.6083924  22.2198435  39.9527777  33.6601622
  21.9565717  39.7898866  34.3807040  32.0896464  41.7466206  28.6283904
  31.8431178  41.6661957  29.4620693  32.4181587  40.9619674  28.4346432
  32.1017707  41.6192472  28.7231427  35.9844512  48.4549566  32.4170685
  35.8458872  49.1530611  32.9219428  35.2044510  48.2998222  32.0606867
  35.8487739  48.5349732  32.4396960  34.3222598  44.7545941  38.6693067
  34.3170636  43.8825757  38.6735494  35.0283591  44.9534110  38.1962523
  34.4267602  44.6549815  38.6000103  28.0493491  44.4822925  38.0406887
  28.1936867  45.0624133  37.4049997  28.3969139  44.8599222  38.7456742
  28.1220952  44.6243629  38.0505882  30.2213408  43.6813093  35.8232019
  29.4736722  43.8744108  35.4180297  30.3754933  42.8558313  35.5856140
  30.1335836  43.5878205  35.7277425  37.4797885  47.8127819  23.1787185
  37.1004694  47.0264957  23.1716474  36.8164131  48.3614676  23.0358829
  37.3256360  47.7772643  23.1567982  30.4615185  37.5763644  36.7127423
  30.9187799  38.3087618  36.8400215  30.5371514  37.1530109  37.4714678
  30.5406155  37.6220882  36.8428499  22.7048177  37.8229464  37.8016866
  22.1690366  37.2109822  38.1177634  22.7665941  38.3977600  38.4550533
  22.6343809  37.8176391  37.9452293  34.9342511  30.7553519  30.5821266
  35.0526079  31.2129982  29.8488568  34.7604687  29.9498780  30.2957483
  34.9261682  30.7047291  30.4322199  30.3044793  51.3641338  27.0176011
  31.0694685  51.0950982  26.6958675  30.2022883  50.8791349  27.7346074
  30.4026289  51.2530903  27.0755838  28.3397563  39.5665748  33.5569247
  27.5493638  39.3857208  33.8786582  28.7358186  38.7892700  33.5399541
  28.2814439  39.4253209  33.6021795  32.8263454  48.3953522  18.9975960
  33.5936439  48.4553647  18.5881812  32.3794763  47.8233964  18.5132279
  32.8736881  48.3190098  18.8653671  33.7241250  47.2008178  31.2828693
  33.0486251  46.9693410  31.7842080  33.7333626  46.5929361  30.6570798
  33.6259754  47.0767103  31.2644845  30.8535393  42.0426007  38.0392746
  30.7894535  42.9035963  37.9112882  30.9932581  41.7258000  37.2388297
  30.8650864  42.1226174  37.9020958  29.5354487  44.7358146  32.1808948
  29.1116736  44.9362645  31.4447967  29.3599343  43.8886994  32.2933248
  29.4465368  44.6406928  32.0882639  24.8236932  45.2310198  27.6136921
  24.9801552  45.1657001  28.4692913  25.1637525  46.0058750  27.4015601
  24.8970167  45.3359396  27.7091515  31.3616077  44.6068081  26.4830284
  31.9031622  44.1038462  26.9468905  31.6762636  44.5533276  25.6719769
  31.4880474  44.5247502  26.4314096  29.5302527  49.9985433  23.7670312
  29.5995347  49.1399971  23.9063313  30.3090982  50.2157314  23.4389337
  29.6555377  49.9038297  23.7387470  32.5105346  39.5004386  36.5352585
  32.7247316  38.8615300  35.9815939  31.8939246  39.9450210  36.1060446
  32.4510676  39.4714529  36.3903016  21.3971194  42.4145148  27.9297688
  21.7770159  42.8329693  27.2657955  20.8226559  42.9958604  28.2366531
  21.3682519  42.5623007  27.8774429  34.6744434  41.1093451  37.4735892
  33.8621116  40.8019341  37.5549064  35.1334369  40.6292451  38.0378604
  34.6224819  40.9929943  37.5690486  34.0849689  48.9873123  27.9212836
  33.7264344  49.1587766  28.6976869  33.5988400  49.4486329  27.3640835
  33.9608386  49.0812094  27.9538105  31.9020075  32.6104321  31.5239927
  31.0313633  32.5843043  31.4773237  32.1560416  32.4381514  30.7065773
  31.8113635  32.5814465  31.3960064  28.8738054  44.6672288  20.4613070
  29.1630579  45.4437171  20.7356645  28.9609853  44.1561020  21.1627570
  28.9292311  44.7064207  20.6055568  28.9269215  34.6210550  32.9813398
  28.4107704  33.9290741  33.1064977  28.3663144  35.2881327  32.9275997
  28.7675729  34.6173808  32.9919464  30.9961449  35.1603510  34.8106250
  30.6093202  35.1852541  35.5919780  30.5094386  34.5945189  34.3580767
  30.8673958  35.0799261  34.8594154  36.9711428  41.7266165  33.4345953
  36.5439037  41.6392513  32.6794052  36.3337481  41.8343940  34.0200797
  36.8141036  41.7298825  33.4091394  30.6618591  32.0470495  37.1016510
  31.2911709  32.5830795  36.8237581  30.8304453  31.9547854  37.9530076
  30.7796385  32.1131858  37.1865038  30.4632506  36.8341690  39.3742922
  31.2905935  36.5626839  39.4301536  30.4840352  37.6302532  39.7306740
  30.5885356  36.9121444  39.4358105  25.0401995  43.9805553  32.5613183
  24.1990002  43.8809427  32.7692076  25.2492003  44.7501033  32.9127503
  24.9466688  44.0797596  32.6440497  22.5177562  41.6025090  30.3897933
  22.1234260  41.6768102  29.6148043  21.9617679  41.9883036  30.9406295
  22.3780375  41.6706864  30.3565593  34.1542509  34.5806384  30.0701812
  34.3592103  34.5128692  30.9158809  33.8268933  35.3865205  30.0022990
  34.1357757  34.6892324  30.1861467  28.8518660  41.9086952  31.8110780
  28.5481798  41.3542940  32.4121188  28.1498081  42.0879162  31.3238814
  28.7034870  41.8531734  31.8280486  27.9084757  39.2187472  26.3755482
  28.1844492  38.5006384  25.9633049  28.5083427  39.8172392  26.1676588
  28.0378022  39.2007843  26.2836243  26.9137011  49.1236673  36.5182878
  26.8057366  49.1338735  37.3844936  27.1232793  49.9491453  36.3287832
  26.9287122  49.2477748  36.6186969  37.4076197  35.1338148  29.5504578
  36.7950510  35.6208550  29.9358309  37.5040372  34.4581639  30.0942229
  37.3314094  35.1056457  29.6883436  31.4095278  36.8900989  24.6502077
  31.8639024  37.0611550  25.3749921  31.8835324  36.2769100  24.2499853
  31.5463598  36.8251875  24.6975839  24.9310803  46.3749315  33.9804815
  24.3398736  47.0158813  33.9507831  25.6931827  46.7986932  33.9536115
  24.9559064  46.5325154  33.9719963  25.3271426  37.5351313  34.6472833
  25.7872908  37.6090242  35.3847957  25.3727533  38.3332567  34.2972654
  25.4021981  37.6645460  34.7045590  26.9754776  38.2018008  39.2144860
  26.5840341  37.5551355  39.6500638  27.1440639  38.7929443  39.8339116
  26.9425686  38.1932276  39.3707566  28.7508298  43.5943524  25.7547084
  29.4950343  43.9817800  25.9930034  28.8968994  42.7500949  25.9187572
  28.8818883  43.5273996  25.8141054  30.6687873  35.3893783  30.7878946
  29.8223918  35.5616590  30.6620295  30.6659006  34.5843126  31.1244774
  30.5435023  35.2954811  30.8190073  31.7386174  39.1668997  31.6541004
  31.2646128  38.6410759  32.1646314  32.1104310  38.6198470  31.0855865
  31.7236063  39.0084994  31.6456151  22.1159204  41.1640504  37.0224549
  22.9784817  41.0636213  36.9361879  21.7850987  40.5835213  36.4610121
  22.1944400  41.0632130  36.9269955  38.0022904  44.2271373  33.0647784
  37.7621127  43.3877788  33.0690210  38.4814911  44.3071539  33.7888558
  38.0375088  44.1152772  33.1722586  33.6669673  40.0605552  24.7166757
  33.1392692  40.1434296  24.0272466  34.1265382  40.8023423  24.7131402
  33.6571524  40.1826214  24.6141452  40.0028091  41.0072830  31.0177043
  39.7637861  40.9668664  30.1797828  40.1661993  41.8543982  31.1442764
  39.9918395  41.1264915  30.9130525  36.6074121  45.3922779  36.9482088
  37.3308320  44.9395306  36.7693108  36.3424084  45.6727445  36.1654416
  36.6755395  45.3673748  36.8060804  25.4760990  39.9882953  33.6834967
  24.8514060  40.0001345  33.0760920  25.1406585  40.4643128  34.3326208
  25.3346482  40.0601470  33.6891536  25.6602739  38.3308071  19.7407652
  25.3115543  38.9827796  20.2039202  25.1799184  38.3165184  19.0131524
  25.5372982  38.4251125  19.7018744  22.1886665  48.0483413  35.1238732
  21.6586590  47.3575852  35.1733707  22.4611759  48.0393598  34.2951440
  22.1511388  47.9450545  35.0086148  32.3892911  45.4906657  35.0977103
  31.7749904  44.9464708  35.3925739  32.9060196  44.9770894  34.6182919
  32.3748573  45.3343066  35.0701332  31.6289208  46.5610927  32.8321402
  31.2016816  45.9360646  32.3986837  31.6214152  46.2785849  33.6580409
  31.5648349  46.4263708  32.8901230  24.7451735  41.5976100  35.9009836
  24.9045222  40.8419425  36.3061558  24.5644629  42.1467040  36.5550574
  24.7417094  41.5669914  36.0572542  32.6872038  33.7637336  36.4560625
  32.1912599  33.9601010  35.7652192  33.4441100  34.1630004  36.2849427
  32.7258863  33.8515070  36.3280762  29.9574918  37.4379682  33.0463936
  29.9817405  36.9039794  32.3576716  30.2086391  36.9296991  33.7089527
  29.9984836  37.2840586  33.0428581  17.4682508  44.7211177  32.4807080
  17.3625957  44.6758021  31.6159164  16.7182728  45.0664957  32.7621365
  17.3418111  44.7652085  32.3944410  26.2376240  36.1650500  32.4269680
  26.2774612  36.6659707  33.1404388  25.4125905  36.2560894  32.1575603
  26.1215766  36.2532316  32.4920219  28.4205853  45.7311240  40.5289975
  27.5701483  45.8682954  40.6647620  28.5833981  44.9975018  40.9737677
  28.3189716  45.6425341  40.6145574  27.6590603  42.6811010  34.7243579
  26.8282533  42.8484828  34.5178827  27.6042121  42.3046961  35.5092465
  27.5280018  42.6500741  34.8092107  25.4674387  36.1719903  40.3599990
  26.0927090  35.6282036  40.6329422  25.0124867  35.6914821  39.7907780
  25.4922647  36.0209384  40.3161584  26.0326647  40.9566602  25.2533697
  26.1729608  41.4539066  25.9562338  26.5309180  40.2552896  25.3947911
  26.1267728  40.9268580  25.3785276  26.0626870  41.8233713  22.5826274
  26.6971949  42.4194138  22.5175736  26.1452480  41.5237170  23.3972144
  26.1683421  41.8674621  22.6929360  39.0409435  44.3549190  35.4512638
  39.6327276  44.9946441  35.4830836  39.4768430  43.6572227  35.7404705
  39.1927867  44.3467540  35.4993471  27.6405852  37.7547688  22.5571716
  27.9621694  37.2750770  21.9030978  27.9032796  38.5647334  22.3662527
  27.7271878  37.8037586  22.4327208  30.8702825  48.7766562  36.0770532
  30.3627916  49.3302409  36.5211162  30.5729471  48.8374852  35.2589306
  30.7507710  48.8672874  36.0218989  33.0365007  37.1419882  34.9195195
  33.4620079  36.6892408  34.3078721  32.4222001  36.5879953  35.1959982
  33.0093653  36.9933858  34.8700220  22.5679858  44.0201553  25.8515820
  23.0772087  44.6166061  26.2327125  23.0414130  43.7527527  25.1692239
  22.7123233  44.0687369  25.8070343  31.4759230  33.6134982  28.3285772
  30.8327548  33.4632628  28.8970910  31.1358637  33.3677327  27.5634877
  31.3304308  33.5547104  28.2988787  36.0658577  41.5694409  27.7515781
  35.3949767  42.1124111  27.6228846  36.7598327  42.0389264  27.5097475
  36.0687444  41.7192680  27.6971308  36.2286704  38.0250292  30.6606154
  36.5814314  37.5980015  31.3351952  35.3701506  37.9401136  30.7907230
  36.1536149  37.9495033  30.7801164  24.9270389  40.6557812  28.7189000
  24.2082378  41.0721944  28.9861864  25.2982752  41.2212051  28.1680638
  24.8762321  40.8007093  28.6771807  34.2269970  41.2885661  34.6090996
  34.2067897  41.1068956  35.4625775  34.2749171  42.1597679  34.5850580
  34.2304611  41.3902199  34.7314291  30.7016964  39.6955812  24.0562380
  30.1081803  40.0172808  23.5046947  30.7392241  38.8496907  23.8483486
  30.6191353  39.6180140  23.9445151  37.6610764  33.1468704  31.5890466
  37.1541629  32.4397844  31.5211644  38.4578198  32.8161893  31.7191543
  37.7038004  32.9941855  31.5989461  33.5774780  39.6535316  27.4864130
  33.3488473  39.6768018  26.6442488  33.8372856  38.8292783  27.6059141
  33.5820968  39.5351396  27.3789328  27.8594009  41.5069789  37.0889230
  27.3472912  40.8990972  37.4474262  27.6873505  42.2226382  37.5563206
  27.7583646  41.5233089  37.2105454  22.7059723  39.9507365  39.7391592
  22.5362314  40.6108739  39.1939799  22.2625673  40.1613926  40.4604081
  22.6159057  40.0793347  39.7653221  26.6319543  38.1911863  28.7818326
  27.1076909  38.5528942  28.1468507  26.1308142  38.8468330  29.0618468
  26.6284902  38.3406051  28.7295067  31.7363079  39.4294034  39.5291486
  32.2934509  39.2007843  38.8969951  31.4124144  40.1899700  39.2526698
  31.7709489  39.5077871  39.3947983  19.6061788  42.8554230  34.9980082
  19.0588507  42.1854876  35.1160950  20.3954166  42.4884078  35.0623549
  19.6413971  42.7019217  35.0248782  29.4546196  42.5161687  40.4943493
  30.2057523  42.8313364  40.8083047  29.6468773  42.3140858  39.6677415
  29.5937610  42.5329069  40.4186889  28.6746196  40.3353062  22.1491710
  29.0545161  40.3532692  21.3642824  27.9338792  40.7807051  22.0282557
  28.6215034  40.4034837  22.0155278  36.3031486  38.6435254  27.7367288
  36.3025713  38.4883910  28.5951565  36.0987666  39.4898241  27.6808674
  36.2731264  38.7455874  27.8555228  18.3648757  42.0675038  32.1526105
  18.1870518  41.6151647  32.8781020  18.0767779  42.8701199  32.3364582
  18.2961710  42.1197596  32.2869608  34.0272338  43.3232755  31.3903495
  34.5226004  42.6055750  31.3507515  33.2172114  43.0203553  31.2757982
  33.9816232  43.1730402  31.3677221  29.4730950  47.1730569  23.5400500
  28.6642273  46.8497242  23.4933809  29.9805859  46.4663791  23.4728748
  29.4280617  47.0211885  23.5230794  20.1021227  44.6002762  29.2647864
  19.2366747  44.5888452  29.1530635  20.2020043  44.4132985  30.1119003
  19.9895394  44.5708823  29.3736808  36.0924157  46.0736443  34.0780624
  36.5179229  45.5510865  33.5251049  35.7281077  46.6717280  33.5569247
  36.1010760  46.0846670  33.9189634  32.6802757  49.7870707  30.4081781
  33.1513935  50.5010970  30.5771767  33.0162935  49.1869457  30.9441651
  32.7997872  49.8042171  30.5114157  29.5972252  34.5598178  37.3639876
  29.7300157  33.7629171  37.6920852  29.9817404  35.0864581  37.9438152
  29.6728581  34.5198094  37.4983379  32.6704607  31.4828504  33.9620969
  31.8650571  31.3726233  34.2788808  32.5411342  31.5840960  33.1050835
  32.5324740  31.4812174  33.8829010  36.1270567  37.6473996  34.5560666
  35.5433556  38.1483202  34.1438234  36.4474861  37.1403552  33.9224990
  36.0883743  37.6465831  34.4019174  28.6665367  36.5614591  24.8319341
  29.4881061  36.7312903  24.5901036  28.2035017  36.7161852  24.1085639
  28.7196529  36.6096324  24.6890985  27.2560698  34.5557353  35.6117770
  27.8005111  34.2148480  36.2022112  27.3097634  35.4142814  35.7539055
  27.3449818  34.6312612  35.7199643  23.0691257  48.3173769  32.4856578
  23.6736115  48.2769603  31.8570399  22.8618570  49.1644921  32.5160634
  23.1280154  48.4361771  32.3972694  32.8835029  50.5839714  33.7018815
  33.7033403  50.4402680  33.9635110  32.6029107  51.2085913  34.2435253
  32.9631773  50.6550066  33.8206755  18.3042540  47.3008386  32.3555501
  18.2066818  46.4904658  32.6645558  19.0871409  47.2800180  31.9701769
  18.4058676  47.1775477  32.3442364  27.1034337   4.1412081  13.6001738
  27.0728341   4.9956718  13.7720008  27.7015685   3.8407374  14.1587882
  27.1871494   4.2228578  13.7076541  20.3034021   3.2287732  18.3554669
  19.4471917   3.3896230  18.4063786  20.3501675   2.3579796  18.3759730
  20.1833133   3.1238534  18.3660735  14.6875161  12.7650450  14.1191900
  13.9358061  12.3865988  13.8907945  15.1361173  12.7968883  13.3710711
  14.6424828  12.7136057  13.9749403  23.6127738   9.4974258  27.9615125
  24.3194505   9.0026288  28.0902059  23.8015673   9.9383339  27.2317783
  23.7455644   9.4892608  27.8724170  20.1400121  13.1875819   9.5477447
  19.8051489  13.8652741   9.1121670  20.6526991  12.7981131   8.9594319
  20.1665702  13.2300398   9.3964239  19.6804412  15.1390088  15.4888559
  20.0643792  15.7076987  14.9493334  19.6163553  14.4139598  15.0094375
  19.7277839  15.1165551  15.3382422  23.1485842   5.2879776  20.9986320
  23.6941802   5.9664863  21.0580290  23.0902719   5.1467237  20.1387902
  23.2201757   5.3671778  20.8798381  16.2659917  12.7768842  16.3854673
  16.3670280  11.9669196  16.6951801  15.6701663  12.6825788  15.7554351
  16.1932456  12.6433870  16.3380911  24.9250911   6.7164383  11.8720048
  24.8090437   7.4672069  12.3012186  25.7206798   6.4588336  12.1216135
  25.0255500   6.7899230  11.9724140  16.1060657  17.6946431  17.7869529
  16.7498112  18.1359595  18.1765687  16.4316912  16.8899857  17.6999788
  16.2492486  17.6411626  17.8315006   9.4624962   8.7989129  16.0107007
   9.2275146   7.9656781  15.9039275   9.6010602   9.0793794  15.1968207
   9.4480624   8.7172632  15.8749362  11.7615049   0.9674859  18.9091314
  11.1420081   0.3767506  18.7401329  11.6598913   1.5586294  18.2755637
  11.6552725   0.9678942  18.7896304  16.8081237  10.7058406  13.1589391
  17.1297078  11.2463613  12.5550699  17.4553333  10.1355177  13.2911680
  16.9507292  10.7017581  13.0896426  18.8582945   2.7074401  13.2423777
  19.5563109   2.8862529  13.7345241  19.1735277   2.1844740  12.6194167
  19.0078282   2.6568173  13.2225787  11.4884182   4.5127141  21.1534883
  11.3642879   5.0989586  21.7884702  12.1402467   4.0187337  21.4547158
  11.5657831   4.5265945  21.2920813  19.0470880   9.0944846  13.2303569
  19.4864516   8.4861947  13.6758342  18.8975543   8.7152219  12.4589034
  19.0892346   8.9483317  13.1822736  16.5142523   7.6888858  20.4322394
  17.1591526   7.1961301  20.1133343  16.7544300   7.8313644  21.2588473
  16.6453108   7.6366300  20.5071928  19.0528614  10.5343764  20.0829287
  19.3351857   9.7395169  19.8616043  19.7814775  11.0124351  20.1034348
  19.2018178  10.4878361  20.0532302  17.0309808  -1.9233202  17.3245052
  16.7013138  -1.4722059  16.6548751  16.3554810  -2.0017039  17.8718058
  16.8820245  -1.8682067  17.3068275  22.6480217   7.4472027  10.1834338
  22.5631512   8.3032994  10.3283907  23.1364600   7.1716351  10.8516497
  22.7069114   7.5329349  10.3036420  23.5798650   4.0656822  11.6832073
  23.0510121   4.2816455  12.3429379  24.1023670   4.7592960  11.6033043
  23.5787103   4.1999958  11.7687672  29.0346703   9.6403126  17.0565118
  28.2044406   9.8513770  17.2198534  28.9855955   8.8140181  16.7807401
  28.9053438   9.5492732  17.0402483  15.4698258   7.9620038  10.4839541
  14.8855473   8.4670070  10.8905405  15.0668353   7.7362425   9.7436133
  15.3237561   8.0028287  10.4344566  11.0242286  13.6774799  17.2863213
  10.5409864  14.4025289  17.2622796  11.8365604  13.9750929  17.3973370
  11.0733034  13.8277153  17.2990492  17.0956440  12.4706980  19.8913027
  16.5783382  12.1114395  19.2874335  17.7930832  11.9469155  19.9019093
  17.1222021  12.3404668  19.8043286  20.7520032  12.9201794  25.8529200
  20.8403378  12.7327935  26.7007411  21.1809745  12.2739224  25.4534047
  20.8282135  12.7964802  25.9200952  18.3190492  12.2032954  24.8346862
  17.7561327  11.7905564  25.3586524  19.0811516  12.1285860  25.2540006
  18.3484941  12.1310355  24.9739863  13.8786483  14.1930975  17.4383493
  14.5807063  13.6782964  17.4956249  13.7983967  14.5205127  18.2430368
  13.9710244  14.1645202  17.5656285  28.5300661   2.2873527  20.8515539
  27.6929082   2.3575714  21.0863133  28.4988892   2.2898021  19.9789841
  28.4018943   2.2983754  20.7575087  14.9265390   4.4306562  26.5663908
  15.0985894   4.3212457  27.4149189  15.4634748   5.0760968  26.3295100
  15.0310394   4.5098564  26.6569004  13.2037259  10.3837327  16.9469101
  14.0426158  10.6160260  16.9942862  13.2349028   9.5141639  16.8776136
  13.3318976  10.2894274  16.9433745  13.8289962  10.8038202  21.2482406
  14.3688187  10.6609334  21.9185778  13.1459908  11.2034953  21.6166432
  13.8082116  10.8417873  21.4016828  23.2530847   6.4829203  16.4427430
  24.0088362   6.9160717  16.4816339  23.3593171   5.8333973  17.0162066
  23.3801017   6.4506687  16.5325456  26.2911018  10.3102480  17.1929833
  25.8546250  10.3139223  17.9488805  25.9573933  10.9907979  16.7609411
  26.1773638  10.4114936  17.2410666  20.8640092  12.3510813  28.5172984
  21.6480508  12.4641661  28.8828726  20.6636686  11.5251950  28.7131670
  20.9506117  12.2457533  28.6007370   9.2327107   7.0238493  21.4016828
   8.9665522   6.2077610  21.5607818   9.2465671   7.0691649  20.5312343
   9.1951829   6.9095398  21.2970310  13.9825713   0.5616872  24.0483835
  13.2897510   0.0913851  24.2944567  14.5986041   0.3355176  24.6225542
  13.9710243   0.4584003  24.1692988  21.0210485  14.2620915  22.1639439
  20.2225731  14.0220415  22.4213308  21.4696496  14.3135308  22.9106487
  20.9685096  14.2343306  22.3124364  29.4255364   7.0283400  16.0849471
  30.0871798   6.4674069  15.9845379  28.7846776   6.5335431  16.4102162
  29.4284232   6.8719809  16.1181811  20.3132172  10.3253532   8.3930394
  20.7283320   9.9938555   7.7014890  19.4824101  10.0922434   8.2650531
  20.2520181  10.2424788   8.2721241   9.6420521   7.8097273  18.6828572
   9.4596094   7.7844159  17.8300864  10.3770190   8.2796211  18.7217481
   9.7234585   7.8758635  18.5626490  25.7120195   8.0448783  15.8261459
  25.9475784   8.1893982  14.9988310  25.8609758   8.8091191  16.2192973
  25.7685998   8.1787837  15.7625063  12.7066272   4.5282276  25.1910681
  13.4306245   4.5135306  25.6775575  12.8082409   5.2377631  24.6932649
  12.8284481   4.6306979  25.1889467  27.5410652   6.8850449  13.6631063
  27.8718869   7.4178089  13.0571158  28.1143740   6.9389336  14.3193014
  27.6744331   6.9720017  13.6708845  20.0811222   8.0081360  30.0559628
  19.2884203   8.3224872  30.2412247  20.1960149   8.2232829  29.2180412
  19.9806632   8.0865197  29.9597962  22.7542541   4.7315351  14.3454643
  22.8489395   5.4704645  14.7994269  22.1301384   4.3032827  14.7789208
  22.6751571   4.7776672  14.4762791  21.0095015   7.9101564  24.9944924
  21.5833876   7.2728808  25.1493488  20.9309818   7.9105646  24.1254582
  21.0828249   7.8166675  24.8891335   9.6091431   4.6890773  18.8327638
  10.1864934   4.5527224  19.4719884   8.9105493   4.2326558  19.0873223
   9.5912452   4.6013040  18.9649928  23.0065562   6.5764091   7.5791595
  22.9245725   6.6466278   8.4446582  23.6445282   7.1393835   7.3875336
  23.0885399   6.6703062   7.6781545  16.3658733   6.3424829  17.0466122
  16.1077977   5.5096564  17.0197421  16.4207216   6.5682442  16.2058622
  16.3358511   6.2522600  16.9186258  21.4459783  -1.5546720  17.1470214
  20.7416110  -2.0437535  17.3054134  21.4944758  -1.5424246  16.2758659
  21.3489835  -1.6257072  17.0409554  15.3393445   3.8962591  17.5331016
  14.7643037   4.0554760  18.1694977  14.9629122   3.2598001  17.0699467
  15.1996258   3.8260404  17.5585575  19.0066734   2.3685941  22.3923395
  18.6181167   1.9440159  21.7375586  18.3421432   2.6168090  22.9000422
  18.8513662   2.3424662  22.3711263  28.6490003   2.1260945  15.1671225
  28.3926568   1.3140887  14.9769108  29.4919317   2.1338513  14.9401412
  28.7356028   2.0072943  15.1056042  20.1105672   6.5984545  10.5900202
  20.9246311   6.8899438  10.4782973  20.0464813   5.9444408  10.0158495
  20.2208411   6.5449740  10.4889039  26.3315162   9.2810542  25.0029777
  26.0953800   8.4498606  24.8841838  26.9758391   9.2296149  25.5884622
  26.3909833   9.1508229  25.0715671  15.9813580  10.0706063  15.7172514
  16.6187527   9.8317810  16.2624307  16.4068652  10.2743222  14.9825675
  16.1389747  10.0657073  15.6889671  10.6726223  12.3094399  19.6006818
  10.7130368  12.5809250  18.7726597  11.2320747  12.8336307  20.0164606
  10.7609569  12.4270154  19.5398706  16.6216395   5.2908353  10.0547403
  17.0061548   5.0716059  10.8063948  16.3728016   6.1171298  10.1848480
  16.6418468   5.3806499  10.1848480  16.7884936  -1.4285232  29.7709988
  16.4738377  -0.6585669  29.5079550  16.4674868  -1.9914976  29.1862214
  16.6943855  -1.3974964  29.6451337  27.3551583   9.0654990  21.0658072
  27.0497400   9.7983047  21.4271388  26.6357799   8.6592920  20.7850858
  27.2038925   9.1136723  21.0771209  18.3635052  10.5478485  17.3966300
  18.4374061  10.3853657  18.2508150  19.1804559  10.7368675  17.1526782
  18.4951411  10.5515228  17.4864326  33.0553375   5.7047991  20.3926416
  32.9877875   5.7243950  19.5229003  33.0409038   6.5478318  20.6182087
  33.0432132   5.8321726  20.2978893  12.1240809  10.8936348  14.4260744
  11.2978927  11.1398085  14.2995022  12.1852800  10.8148429  15.2922802
  12.0114976  10.9181297  14.5349688  16.9039638  13.5113228  12.1279774
  17.1937937  13.1202210  11.4039000  17.6343119  13.6929933  12.5685049
  17.0546522  13.4807042  12.0862581  30.8411992   4.4792377  18.6673011
  31.3919914   3.8460446  18.9070103  30.8256108   5.0107770  19.3588515
  30.9197189   4.4641325  18.8051869  17.4934383   8.3130974  23.2132904
  16.9946077   9.0246742  23.2917793  18.3034608   8.6331641  23.1751066
  17.5390490   8.4657823  23.2189473  14.8445554  15.4880611  15.1939923
  14.6245849  15.1977966  15.9866590  14.6240076  14.8295566  14.6657836
  14.7793148  15.3480319  15.2328832  13.7562501   7.5753927  17.4595625
  13.4675750   6.9491399  17.9941352  14.6245849   7.5174215  17.5260305
  13.8422753   7.4741472  17.5486580  24.5440399   2.7188711  17.7777607
  24.2005165   1.9979046  18.1284857  24.6433441   2.5102562  16.9355965
  24.5082442   2.5812914  17.7049287  17.0113509  16.8610001  13.9770616
  17.6637567  16.3286443  14.2061642  16.3139118  16.5078653  14.3638490
  17.0044227  16.7299524  14.0682783  13.9594774   9.2149178  13.3837990
  14.7140742   9.5962218  13.5973453  13.3665387   9.6660322  13.8384687
  13.9831488   9.3378006  13.4820868  25.0053428   9.1814415  13.3201595
  25.5711460   9.8407625  13.2360138  24.3581331   9.5264113  13.7917997
  24.9932184   9.3296356  13.3774351  16.4201441   1.1712019  28.5095202
  15.6101217   1.4769799  28.3985045  16.8976128   1.8917601  28.6247786
  16.3704920   1.3226620  28.5102273  15.2793001  10.3857740  18.7578105
  14.7573754  10.5258032  19.4429970  15.6667021   9.6268404  18.9480223
  15.2596702  10.2943264  18.8879182  21.4760006  12.1253199  12.7438674
  21.2346682  11.3921060  12.3365739  21.6561339  12.6740056  12.0905008
  21.4667630  12.0975590  12.5868897  16.7059326   7.4161759  14.1559596
  16.5102109   8.0236493  13.5619899  16.9293672   6.7229703  13.6751270
  16.7093968   7.4039284  13.9975677  15.1037857   4.3016497  14.2740465
  15.8260508   4.4657655  13.8144271  14.6245849   5.0226162  14.1679805
  15.1401587   4.4314726  14.1906079  23.0631364   0.6380296  19.6537150
  22.2242465   0.6641574  19.4175413  23.1335731   1.2851031  20.2342496
  22.9499758   0.7376421  19.7046267  12.7545473   6.7074569  23.3794605
  13.2666570   6.9858822  22.7303364  12.4681816   7.4463863  23.7457418
  12.7880336   6.8576923  23.3384483  26.9388888   5.8448282  16.9398392
  26.8522862   6.0003708  17.7933170  26.4839368   6.4886358  16.5657797
  26.8592145   5.9624037  17.0105498  16.2729199  -1.1999042  23.4395646
  16.0812396  -1.1843908  24.2895070  17.1227795  -1.0035368  23.4162301
  16.3704921  -1.1684691  23.5618941  10.6576112   1.3291939  21.4179463
  10.5161603   0.4775880  21.5423971  10.9416675   1.3720600  20.5941669
  10.6783958   1.2091689  21.3147087  20.8114704   3.1659029  15.5623951
  20.5649418   3.0854780  16.3960740  21.1399827   2.3812497  15.3686479
  20.8235948   3.0385295  15.6571474  24.7062753   9.8742389  19.3510732
  24.5677112  10.5723435  19.8559475  23.9262751   9.7191045  18.9946914
  24.5705980   9.9542555  19.3737006  23.0440838   6.1738764  25.6033114
  23.0388876   5.3018581  25.6075540  23.7501832   6.3726933  25.1302570
  23.1485842   6.0742638  25.5340149  16.7711731   5.9015748  24.9746934
  16.9155107   6.4816956  24.3390044  17.1187380   6.2792045  25.6796789
  16.8439193   6.0436452  24.9845929  18.9431649   5.1005916  22.7572066
  18.1954963   5.2936931  22.3520344  19.0973174   4.2751136  22.5196187
  18.8554076   5.0071028  22.6617472  15.8439486  14.0918520  21.8407961
  15.9929050  13.5321436  21.1881365  16.6239488  14.1710522  22.2240480
  15.9813580  14.0204085  21.8004910  26.2016126   9.2320643  10.1127231
  25.8222934   8.4457780  10.1056521  25.5382371   9.7807500   9.9698876
  26.0474600   9.1965467  10.0908028  18.3692787  14.2633163  23.1192452
  18.2936458  13.5941973  23.6743240  18.2982646  14.9650951  23.6333118
  18.3473394  14.2678070  23.2769300  19.1833426  -1.0043533  23.6467469
  19.6406040  -0.2719559  23.7740262  19.2589754  -1.4277068  24.4054725
  19.2624395  -0.9586295  23.7768546  19.0263034  12.7834162  13.9516058
  19.7912925  12.5143805  13.6298722  18.9241124  12.2984172  14.6686121
  19.1244529  12.6723726  14.0095885  17.0615804   0.9858571  20.4909293
  16.2711878   0.8050031  20.8126629  17.4576426   0.2085524  20.4739588
  17.0032680   0.8446032  20.5361842  22.4459490   8.6201001  18.2168739
  21.7704492   8.3886233  18.7182126  22.4551866   8.0122184  17.5910844
  22.3477994   8.4959926  18.1984892  19.5753634   3.4618830  24.9732792
  19.5112775   4.3228787  24.8452929  19.7150822   3.1450823  24.1728344
  19.5869104   3.5418997  24.8361005  24.4476224  11.4766134  10.4478917
  24.5296062  12.2833120  10.1240368  24.9325967  11.4962093  11.1719691
  24.5313382  11.5986796  10.5065816  18.2572728   6.1550970  19.1148995
  17.8334977   6.3555469  18.3788014  18.0817583   5.3079817  19.2273295
  18.1683608   6.0599751  19.0222685  17.7584421  17.6701482  21.5770453
  18.2480351  16.9712272  21.3946117  17.1868653  17.3725352  22.1646510
  17.7468951  17.5227706  21.6371493  13.5455173   6.6503021  14.5476968
  13.7019792   6.5849824  15.4032960  13.8855766   7.4251574  14.3355647
  13.6188408   6.7552219  14.6431562  20.0834317   6.0260905  13.4170331
  20.6249863   5.5231286  13.8808952  20.3980876   5.9726099  12.6059816
  20.2098714   5.9440325  13.3654143  23.9551425  10.2363552  30.5297243
  24.7686290   9.9648701  30.6902376  23.7946391   9.9371092  29.7257439
  24.0521373  10.1518478  30.4342649  18.2520767  11.4178256  10.7010359
  18.3213587  10.5592795  10.8403359  19.0309222  11.6350137  10.3729384
  18.3773617  11.3231120  10.6727516  21.2323587   0.9197209  23.4692631
  21.4465556   0.2808123  22.9155985  20.6157486   1.3643033  23.0400493
  21.1728916   0.8907353  23.3243063  22.6428255  13.8415957  14.9146852
  22.2508046  13.5382673  14.1969719  22.7981327  14.6785047  14.7251806
  22.6081844  13.9199794  14.7803349  10.1189434   3.8337971  14.8637735
  10.4988399   4.2522516  14.1998002   9.5444799   4.4151427  15.1706578
  10.0900759   3.9815830  14.8114476  23.3962675   2.5286274  24.4075939
  22.5839356   2.2212165  24.4889111  23.8552609   2.0485274  24.9718651
  23.3443059   2.4122767  24.5030533  22.8067929  10.4065946  14.8552883
  22.4482584  10.5780589  15.6316915  22.3206640  10.8679152  14.2980881
  22.6826626  10.5004917  14.8878152  20.4916182   3.9346346  29.1904641
  20.9615813   4.5588462  29.5772515  20.5378062   3.2663321  29.7497856
  20.5684058   3.9281026  29.3304712  23.9672669  11.2969842  25.8020084
  24.6052389  10.8030038  25.4682540  23.3246760  11.2247243  25.2172311
  23.9666895  11.2128851  25.6662439  25.6929669   3.1458988  20.3685999
  25.2657277   3.0585337  19.6134099  25.0555722   3.2536764  20.9540843
  25.5359276   3.1491648  20.3431441  19.1850746  -1.7465487  26.3082969
  20.0124175  -2.0180338  26.3641583  19.2058592  -0.9504645  26.6646787
  19.3103596  -1.6685732  26.3698152  24.0226925  11.9889650  22.4425441
  24.8119303  11.6378715  22.5627522  24.1970523  12.8026039  22.1802074
  24.1647207  12.0575508  22.4213309  13.7620236   5.3998376  19.4953229
  12.9208242   5.3002250  19.7032123  13.9710244   6.1693856  19.8467550
  13.6684928   5.4990420  19.5780544  11.2395803   3.0217913  17.3237980
  10.8452500   3.0960925  16.5488090  10.6835920   3.4075859  17.8746342
  11.0998615   3.0899688  17.2905640  17.5736901   3.3279775  18.7450827
  17.2700038   2.7735764  19.3461235  16.8716321   3.5071985  18.2578861
  17.4253110   3.2724558  18.7620533  16.6302998   0.6380295  13.3095529
  16.9062732  -0.0800792  12.8973096  17.2301667   1.2365215  13.1016635
  16.7596262   0.6200666  13.2176290  15.6355252  10.5429496  23.4522925
  15.5275607  10.5531558  24.3184983  15.8451033  11.3684276  23.2627878
  15.6505363  10.6670571  23.5527016  13.6529044   7.7942138  20.9144862
  13.0616977   8.4351637  20.8847877  14.4150067   8.2179756  20.8876162
  13.6777304   7.9517977  20.9060009  14.0489666  -1.0455864  21.5812880
  14.5091148  -0.9716934  22.3188004  14.0945773  -0.2474610  21.2312701
  14.1240222  -0.9161717  21.6385636  15.6973016  -0.3789169  26.1484907
  15.3058581  -1.0255822  26.5840685  15.8658879   0.2122266  26.7679162
  15.6643926  -0.3874901  26.3047613  29.7719465   7.6247908  21.9122141
  29.8302589   8.0734557  22.6582117  29.1385933   8.0346721  21.4752221
  29.6870760   7.7521643  21.9574689  23.4118560  13.2451450  18.3476887
  23.2138249  13.7342265  17.6533098  22.7906271  13.4492692  18.9261020
  23.2906124  13.3467988  18.3300110  17.4726538   5.0136347  12.6887131
  18.2168583   5.4010623  12.9270081  17.6187234   4.1693772  12.8527619
  17.6037123   4.9466820  12.7481101  20.4604414   0.5861820  18.5881050
  19.9864368   0.0603582  19.0986361  20.8322550   0.0391293  18.0195912
  20.4454303   0.4277817  18.5796198  10.8377444   2.5833327  23.9564596
  11.7003057   2.4829036  23.8701926  10.5069227   2.0028036  23.3950168
  10.9162641   2.4824954  23.8610002  26.7241145   5.6464196  19.9987831
  26.4839368   4.8070611  20.0030257  27.2033152   5.7264363  20.7228604
  26.7593328   5.5345596  20.1062633  22.3887914   1.4798375  11.6506804
  21.8610932   1.5627119  10.9612513  22.8483622   2.2216246  11.6471449
  22.3789764   1.6019037  11.5481499  28.7246332   2.4265653  17.9517090
  28.4856102   2.3861487  17.1137875  28.8880233   3.2736805  18.0782811
  28.7136635   2.5457738  17.8470572  25.3292362   6.8115602  23.8822135
  26.0526561   6.3588129  23.7033155  25.0642324   7.0920268  23.0994463
  25.3973635   6.7866571  23.7400850  14.1979230   1.4075776  20.6175014
  13.5732300   1.4194168  20.0100967  13.8624825   1.8835951  21.2666254
  14.0564722   1.4794293  20.6231583  10.9104906   9.4676236  22.0578779
  10.3804830   8.7768675  22.1073753  11.1829999   9.4586421  21.2291487
  10.8729628   9.3643368  21.9426195  21.9424996  10.0501938  10.7816461
  22.6659195  10.5160051  10.6381034  21.5025587  10.1175548  10.0314058
  21.9840688  10.1285775  10.6501243  21.1111151   6.9099481  22.0317150
  20.4968144   6.3657531  22.3265785  21.6278436   6.3963717  21.5522966
  21.0966814   6.7535890  22.0041379  20.3507448   7.9803751  19.7661449
  19.9235057   7.3553469  19.3326884  20.3432393   7.6978673  20.5920456
  20.2866590   7.8456531  19.8241276  13.4669976   3.0168924  22.8349883
  13.6263462   2.2612248  23.2401605  13.2862869   3.5659863  23.4890620
  13.4635335   2.9862737  22.9912589  18.6793158  -1.1427495  19.9803983
  18.7035645  -1.6767383  19.2916763  18.9304632  -1.6510186  20.6429573
  18.7203077  -1.2966591  19.9768627   6.1900748   6.1404000  19.4147127
   6.0844197   6.0950844  18.5499211   5.4400968   6.4857781  19.6961412
   6.0636351   6.1844908  19.3284457  14.9594480  -2.4156677  19.3609727
  14.9992852  -1.9147470  20.0744435  14.1344145  -2.3246283  19.0915650
  14.8434006  -2.3274860  19.4260265  17.1424093   7.1504063  27.4630022
  16.2919724   7.2875778  27.5987667  17.3052221   6.4167842  27.9077723
  17.0407957   7.0618165  27.5485621  16.3808844   4.1003833  21.6583626
  15.5500773   4.2677651  21.4518874  16.3260361   3.7239784  22.4432511
  16.2498259   4.0693565  21.7432154  14.7544888   2.3759425  12.1873744
  14.8947849   2.8731889  12.8902385  15.2527420   1.6745719  12.3287957
  14.8485969   2.3461404  12.3125323  27.7627676   5.7742013  22.3852685
  28.3545516   6.4139264  22.4170883  28.1986670   5.0765050  22.6744752
  27.9146107   5.7660364  22.4333517  19.5921066  10.1959386  23.0110579
  19.0846157  10.7495232  23.4551209  19.2947712  10.2567675  22.1929353
  19.4725951  10.2865697  22.9559035  21.7583248  -1.4387295  21.8535242
  22.1838319  -1.8914768  21.2418768  21.1440241  -1.9927224  22.1300029
  21.7311893  -1.5873319  21.8040267  11.2898098   5.4394377  12.7855867
  11.7990327   6.0358884  13.1667172  11.7632370   5.1720350  12.1032286
  11.4341474   5.4880192  12.7410389  22.2028846  14.1122643  10.9414522
  21.4858156  13.9383506  10.4761760  22.8535584  13.8775216  10.4090008
  22.1930696  14.0518436  10.7943740  24.7876817   2.9887232  14.6855827
  24.1168007   3.5316934  14.5568893  25.4816567   3.4582087  14.4437522
  24.7905685   3.1385503  14.6311355  18.8363551  15.1283944  19.9167586
  18.6129205  14.3702773  20.2851612  18.3473394  15.1581965  19.1948025
  18.7307000  15.0206168  19.8644327  13.6488630   2.0750635  15.6529047
  12.9300619   2.4914768  15.9201911  14.0200992   2.6404874  15.1020685
  13.5980561   2.2199917  15.6111854  22.9488210   2.7078484  21.5431043
  22.9286138   2.5261779  22.3965822  22.9967411   3.5790503  21.5190626
  22.9522851   2.8095022  21.6654338  20.8934540   9.2965676  27.4679519
  20.8530395   8.6515353  26.8824675  21.7057859   9.2402293  27.7804931
  21.0077694   9.1924643  27.4276469  17.4842008  15.3484402  17.3704670
  17.0702406  14.6858532  16.9808512  18.1689382  15.4962261  16.8500364
  17.5240380  15.2725060  17.2361167  20.8507302  14.5074487  18.1228287
  20.4523585  14.6176758  17.3549107  20.2358522  14.7156554  18.7054847
  20.7006191  14.5548055  18.0959586  22.2993021   1.0728140  14.4204177
  22.0706714   1.0960841  13.5782535  22.5591097   0.2485607  14.5399187
  22.3039209   0.9544219  14.3129374  16.5812249   2.9262613  24.0229277
  16.0691152   2.3183796  24.3814308  16.4091745   3.6419205  24.4903253
  16.4801886   2.9425912  24.1445501  11.4277964   1.3700188  26.6731639
  11.2580554   2.0301563  26.1279845  10.9843914   1.5806749  27.3944128
  11.3377297   1.4986170  26.6993268  15.3537783  -0.3895314  15.7158372
  15.8295149  -0.0278234  15.0808554  14.8526383   0.2661153  15.9958515
  15.3503142  -0.2401125  15.6635113  28.5849145   9.0826454  11.5071377
  28.9682750   9.8317810  11.7369474  27.7893258   9.3292274  11.2483367
  28.5242927   9.2296148  11.5028951  20.4581319   0.8486857  26.4631533
  21.0152749   0.6200667  25.8309998  20.1342384   1.6092523  26.1866745
  20.4927729   0.9270694  26.3288030   8.3280028   4.2747053  21.9320129
   7.7806748   3.6047699  22.0500997   9.1172406   3.9076901  21.9963596
   8.3632212   4.1212040  21.9588829  18.1764437   3.9354511  27.4283540
  18.9275764   4.2506187  27.7423094  18.3687013   3.7333681  26.6017461
  18.3155851   3.9521892  27.3526935  25.0249727   0.0628077  14.6707335
  25.0243953  -0.0923267  15.5291611  24.8205907   0.9091064  14.6148721
  24.9949505   0.1648698  14.7895274   7.0866998   3.4867861  19.0866152
   6.9088759   3.0344470  19.8121067   6.7986020   4.2894023  19.2704629
   7.0179951   3.5390419  19.2209655  22.7490579   4.7425579  18.3243542
  23.2444244   4.0248574  18.2847562  21.9390355   4.4396376  18.2098029
  22.7034472   4.5923225  18.3017268  18.1949190   8.5923392  10.4740546
  17.3860513   8.2690065  10.4273856  18.7024099   7.8856614  10.4068795
  18.1498857   8.4404708  10.4570841   8.8239468   6.0195585  16.1987911
   7.9584987   6.0081275  16.0870682   8.9238283   5.8325808  17.0459050
   8.7113635   5.9901646  16.3076855  24.8142398   7.4929266  21.0120671
  25.2397469   6.9703688  20.4591096  24.4499317   8.0910104  20.4909294
  24.8229000   7.5039493  20.8529680  14.4496477  15.7893484  19.7718016
  14.7643036  16.6029872  19.7795798  14.8589891  15.4043702  20.4400175
  14.5564575  15.8522186  19.8722108  21.4020997  11.2063530  17.3421828
  21.8732175  11.9203793  17.5111813  21.7381176  10.6062281  17.8781698
  21.5216112  11.2234995  17.4454204  22.0394943  10.9981465  24.1049521
  21.4915889  10.3739348  23.8369586  22.5007972  11.1875737  23.3893600
  22.0262153  10.9340515  23.9599952  11.7909498   9.7366592  19.4196625
  12.3954355   9.6962426  18.7910445  11.5836810  10.5837744  19.4500680
  11.8498395   9.8554595  19.3312741  21.6053270  12.0032537  20.6358862
  22.4251644  11.8595503  20.8975157  21.3247347  12.6278736  21.1775300
  21.6850013  12.0742889  20.7546801   7.0260780   8.7201210  19.2895548
   6.9285058   7.9097481  19.5985604   7.8089650   8.6993003  18.9041816
   7.1276916   8.5968300  19.2782411  38.0766920  19.6597389  13.6001738
  38.0460924  20.5142026  13.7720008  38.6748269  19.3592682  14.1587882
  38.1604078  19.7413885  13.7076541  31.2766605  18.7473040  18.3554669
  30.4204500  18.9081538  18.4063786  31.3234259  17.8765104  18.3759730
  31.1565716  18.6423842  18.3660735  31.1132705  28.7061127   9.5477447
  30.7784073  29.3838049   9.1121670  31.6259575  28.3166439   8.9594319
  31.1398286  28.7485706   9.3964239  30.6536996  30.6575396  15.4888559
  31.0376375  31.2262295  14.9493334  30.5896137  29.9324906  15.0094375
  30.7010423  30.6350859  15.3382422  34.1218426  20.8065084  20.9986320
  34.6674386  21.4850170  21.0580290  34.0635302  20.6652545  20.1387902
  34.1934340  20.8857086  20.8798381  27.2392501  28.2954150  16.3854673
  27.3402864  27.4854504  16.6951801  26.6434246  28.2011096  15.7554351
  27.1665039  28.1619178  16.3380911  35.8983495  22.2349691  11.8720048
  35.7823021  22.9857377  12.3012186  36.6939381  21.9773644  12.1216135
  35.9988084  22.3084538  11.9724140  22.7347633  16.4860167  18.9091314
  22.1152664  15.8952814  18.7401329  22.6331496  17.0771602  18.2755637
  22.6285308  16.4864250  18.7896304  27.7813820  26.2243714  13.1589391
  28.1029661  26.7648921  12.5550699  28.4285917  25.6540485  13.2911680
  27.9239875  26.2202889  13.0896426  29.8315528  18.2259709  13.2423777
  30.5295693  18.4047836  13.7345241  30.1467861  17.7030048  12.6194167
  29.9810865  18.1753481  13.2225787  30.0203464  24.6130154  13.2303569
  30.4597099  24.0047254  13.6758342  29.8708126  24.2337527  12.4589034
  30.0624929  24.4668625  13.1822736  28.0042392  13.5952106  17.3245052
  27.6745722  14.0463249  16.6548751  27.3287394  13.5168269  17.8718058
  27.8552828  13.6503241  17.3068275  33.6212800  22.9657335  10.1834338
  33.5364095  23.8218302  10.3283907  34.1097183  22.6901659  10.8516497
  33.6801697  23.0514657  10.3036420  35.2118800   9.5837628  15.5694663
  34.8972241  10.2741107  16.0015085  34.6945741   9.5282411  14.8680163
  35.0883270   9.6772517  15.5291612  34.5531233  19.5842129  11.6832073
  34.0242705  19.8001763  12.3429379  35.0756253  20.2778268  11.6033043
  34.5519686  19.7185266  11.7687672  40.0079286  25.1588434  17.0565118
  39.1776989  25.3699078  17.2198534  39.9588539  24.3325488  16.7807401
  39.8786022  25.0678040  17.0402483  26.4430841  23.4805346  10.4839541
  25.8588056  23.9855378  10.8905405  26.0400936  23.2547733   9.7436133
  26.2970145  23.5213594  10.4344566  30.9008056  19.7270998   8.9608462
  31.1404059  19.9348982   8.1483805  31.2223897  18.9228507   9.0697406
  30.9845213  19.6385099   8.8569015  26.2098346  11.6564394  12.8068000
  26.9644314  12.0242711  12.5685050  26.0325880  12.0303948  13.5747179
  26.2952824  11.7662582  12.8852888  39.5033245  17.8058835  20.8515539
  38.6661666  17.8761022  21.0863133  39.4721476  17.8083329  19.9789841
  39.3751527  17.8169062  20.7575087  24.5655410  14.0634713   9.5046113
  24.3830984  14.2806594   8.6787105  25.4281024  14.1773726   9.5604727
  24.6660000  14.1124611   9.3900600  30.2455130  11.0661124  12.5395136
  30.9741290  10.8877079  12.0933293  30.3350023  11.9079203  12.7502315
  30.3661792  11.1645002  12.5048654  34.2263430  22.0014511  16.4427430
  34.9820945  22.4346025  16.4816339  34.3325755  21.3519281  17.0162066
  34.3533601  21.9691995  16.5325456  37.2643601  25.8287788  17.1929833
  36.8278833  25.8324531  17.9488805  36.9306517  26.5093287  16.7609411
  37.1506221  25.9300244  17.2410666  37.1841084  12.8701616  19.4359261
  37.8266993  12.9399721  20.0221177  37.4364105  12.2030839  18.9338803
  37.3163216  12.7827965  19.4486541  24.1117438  17.3408886   8.0168586
  23.3975615  17.0547065   8.4291018  24.5961406  17.6805511   8.6574973
  24.0776801  17.3490535   8.1724221  24.9558297  16.0802179  24.0483835
  24.2630094  15.6099159  24.2944567  25.5718624  15.8540484  24.6225542
  24.9442827  15.9769311  24.1692988  40.3987948  22.5468708  16.0849471
  41.0604382  21.9859377  15.9845379  39.7579360  22.0520739  16.4102162
  40.4016815  22.3905117  16.1181811  31.2864755  25.8438840   8.3930394
  31.7015904  25.5123863   7.7014890  30.4556685  25.6107742   8.2650531
  31.2252764  25.7610096   8.2721241  36.6852778  23.5634091  15.8261459
  36.9208368  23.7079289  14.9988310  36.8342342  24.3276499  16.2192973
  36.7418582  23.6973145  15.7625063  38.5143235  22.4035757  13.6631063
  38.8451452  22.9363397  13.0571158  39.0876323  22.4574644  14.3193014
  38.6476914  22.4905325  13.6708845  33.7275124  20.2500659  14.3454643
  33.8221979  20.9889953  14.7994269  33.1033968  19.8218135  14.7789208
  33.6484154  20.2961980  14.4762791  33.9798146  22.0949399   7.5791595
  33.8978308  22.1651586   8.4446582  34.6177866  22.6579143   7.3875336
  34.0617983  22.1888370   7.6781545  27.3391317  21.8610137  17.0466122
  27.0810561  21.0281872  17.0197421  27.3939800  22.0867750  16.2058622
  27.3091095  21.7707908  16.9186258  32.4192367  13.9638588  17.1470214
  31.7148694  13.4747773  17.3054134  32.4677341  13.9761062  16.2758659
  32.3222418  13.8928236  17.0409554  26.3126029  19.4147899  17.5331016
  25.7375620  19.5740068  18.1694977  25.9361705  18.7783309  17.0699467
  26.1728841  19.3445712  17.5585575  39.6222587  17.6446253  15.1671225
  39.3659151  16.8326195  14.9769108  40.4651901  17.6523821  14.9401412
  39.7088612  17.5258251  15.1056042  16.0582848  19.0587974  15.5475457
  16.1443100  18.6819843  16.3288987  16.6858645  18.6848420  15.0695415
  16.1639399  18.9473456  15.5920934  33.8025679  11.5845877  19.9047379
  34.1836191  10.9024049  20.2915253  32.9988963  11.2955480  19.7223044
  33.7402141  11.4412926  19.9351435  31.0838256  22.1169853  10.5900202
  31.8978895  22.4084746  10.4782973  31.0197397  21.4629716  10.0158495
  31.1940995  22.0635048  10.4889039  26.9546164  25.5891371  15.7172514
  27.5920111  25.3503118  16.2624307  27.3801236  25.7928530  14.9825675
  27.1122330  25.5842381  15.6889671  27.5948979  20.8093661  10.0547403
  27.9794132  20.5901367  10.8063948  27.3460599  21.6356606  10.1848480
  27.6151052  20.8991807  10.1848480  38.3284167  24.5840298  21.0658072
  38.0229984  25.3168355  21.4271388  37.6090382  24.1778228  20.7850858
  38.1771509  24.6322031  21.0771209  44.0285959  21.2233299  20.3926416
  43.9610459  21.2429258  19.5229003  44.0141621  22.0663626  20.6182087
  44.0164715  21.3507034  20.2978893  25.3149416  12.4790597  15.3856184
  24.4471842  12.5513197  15.4513793  25.6024621  13.2812676  15.5744159
  25.2289165  12.6084744  15.4230950  34.4382305  12.6268457  23.7167506
  35.1835897  12.4378267  23.3030931  34.0219610  13.1526695  23.1581362
  34.4867279  12.6770602  23.5732079  27.8772222  29.0298536  12.1279774
  28.1670520  28.6387518  11.4039000  28.6075703  29.2115241  12.5685049
  28.0279106  28.9992350  12.0862581  41.8144576  19.9977685  18.6673011
  42.3652498  19.3645754  18.9070103  41.7988691  20.5293078  19.3588515
  41.8929772  19.9826633  18.8051869  24.7295085  23.0939235  17.4595625
  24.4408333  22.4676707  17.9941352  25.5978433  23.0359523  17.5260305
  24.8155336  22.9926780  17.5486580  35.5172982  18.2374019  17.7777607
  35.1737748  17.5164354  18.1284857  35.6166025  18.0287870  16.9355965
  35.4815025  18.0998222  17.7049287  27.9846093  32.3795309  13.9770616
  28.6370151  31.8471751  14.2061642  27.2871702  32.0263961  14.3638490
  27.9776811  32.2484832  14.0682783  24.9327358  24.7334486  13.3837990
  25.6873326  25.1147525  13.5973453  24.3397971  25.1845630  13.8384687
  24.9564071  24.8563314  13.4820868  23.2416769  15.9548856  12.8273060
  22.9541564  15.5850127  12.0905007  23.9287237  16.4243712  12.5656765
  23.3005666  15.9695826  12.6788136  32.4492589  27.6438507  12.7438674
  32.2079265  26.9106368  12.3365739  32.6293922  28.1925364  12.0905008
  32.4400213  27.6160898  12.5868897  27.6791910  22.9347067  14.1559596
  27.4834693  23.5421801  13.5619899  27.9026256  22.2415011  13.6751270
  27.6826551  22.9224592  13.9975677  26.0770440  19.8201805  14.2740465
  26.7993092  19.9842963  13.8144271  25.5978433  20.5411470  14.1679805
  26.1134171  19.9500034  14.1906079  34.0363948  16.1565603  19.6537150
  33.1975048  16.1826882  19.4175413  34.1068315  16.8036339  20.2342496
  33.9232341  16.2561729  19.7046267  32.4833226  13.0550981  14.3864766
  33.1859579  12.8558729  13.9084724  32.2177415  12.2826923  14.6933609
  32.5479858  12.9113947  14.3610207  37.9121472  21.3633590  16.9398392
  37.8255446  21.5189016  17.7933170  37.4571951  22.0071666  16.5657797
  37.8324728  21.4809345  17.0105498  20.8144963  16.7330069  13.6758341
  20.9161100  17.5356230  14.0039317  21.6100850  16.5317405  13.3781422
  20.9472869  16.8215968  13.6793697  27.2461782  14.3186266  23.4395646
  27.0544979  14.3341400  24.2895070  28.0960378  14.5149940  23.4162301
  27.3437504  14.3500617  23.5618941  31.7847288  18.6844337  15.5623951
  31.5382002  18.6040088  16.3960740  32.1132411  17.8997805  15.3686479
  31.7968531  18.5570603  15.6571474  35.6795336  25.3927697  19.3510732
  35.5409696  26.0908743  19.8559475  34.8995334  25.2376353  18.9946914
  35.5438563  25.4727863  19.3737006  37.1748709  24.7505950  10.1127231
  36.7955518  23.9643088  10.1056521  36.5114955  25.2992808   9.9698876
  37.0207184  24.7150774  10.0908028  22.3999000  14.7607595  24.7356913
  21.8641190  14.1487953  25.0517680  22.4616765  15.3355731  25.3890580
  22.3294633  14.7554523  24.8792340  34.6293335   7.6931650  17.5161312
  34.7476903   8.1508114  16.7828615  34.4555511   6.8876911  17.2297530
  34.6212506   7.6425422  17.3662246  29.9995617  28.3019470  13.9516058
  30.7645509  28.0329113  13.6298722  29.8973707  27.8169480  14.6686121
  30.0977113  28.1909034  14.0095885  28.0348387  16.5043879  20.4909293
  27.2444462  16.3235339  20.8126629  28.4309010  15.7270832  20.4739588
  27.9765263  16.3631340  20.5361842  32.5214278  25.3331653   5.9316007
  33.2887263  25.3931778   5.5221859  32.0745587  24.7612095   5.4472326
  32.5687705  25.2568229   5.7993717  33.4192073  24.1386309  18.2168739
  32.7437075  23.9071541  18.7182126  33.4284450  23.5307492  17.5910844
  33.3210578  24.0145234  18.1984892  35.4208808  26.9951442  10.4478917
  35.5028645  27.8018428  10.1240368  35.9058550  27.0147401  11.1719691
  35.5045966  27.1172104  10.5065816  24.5187756  22.1688329  14.5476968
  24.6752375  22.1035132  15.4032960  24.8588349  22.9436881  14.3355647
  24.5920991  22.2737527  14.6431562  31.0566901  21.5446212  13.4170331
  31.5982446  21.0416594  13.8808952  31.3713460  21.4911407  12.6059816
  31.1831298  21.4625633  13.3654143  33.6160838  29.3601265  14.9146852
  33.2240630  29.0567980  14.1969719  33.7713910  30.1970355  14.7251806
  33.5814428  29.4385102  14.7803349  21.0922018  19.3523279  14.8637735
  21.4720983  19.7707824  14.1998002  20.5177383  19.9336735  15.1706578
  21.0633343  19.5001138  14.8114476  33.7800513  25.9251254  14.8552883
  33.4215168  26.0965897  15.6316915  33.2939224  26.3864460  14.2980881
  33.6559210  26.0190225  14.8878152  31.5970899   9.5482453  18.4579974
  30.7264457   9.5221174  18.4113284  31.8511240   9.3759645  17.6405820
  31.5064459   9.5192596  18.3300111  28.5688878  21.6050420   7.3953117
  28.8581403  22.3815302   7.6696692  28.6560677  21.0939151   8.0967617
  28.6243135  21.6442338   7.5395615  28.6220039  11.5588681  19.9153445
  28.1058528  10.8668873  20.0405024  28.0613968  12.2259458  19.8616043
  28.4626553  11.5551939  19.9259511  30.6912273  12.0981641  21.7446297
  30.3044026  12.1230673  22.5259827  30.2045210  11.5323320  21.2920814
  30.5624782  12.0177392  21.7934201  36.6662252  18.6644296  20.3685999
  36.2389860  18.5770645  19.6134099  36.0288305  18.7722072  20.9540843
  36.5091860  18.6676956  20.3431441  30.3569415   8.9848627  24.0356557
  30.9862533   9.5208927  23.7577627  30.5255277   8.8925986  24.8870123
  30.4747209   9.0509989  24.1205085  34.9959509  27.5074958  22.4425441
  35.7851887  27.1564023  22.5627522  35.1703107  28.3211347  22.1802074
  35.1379791  27.5760815  22.4213309  22.2128386  18.5403221  17.3237980
  21.8185084  18.6146233  16.5488090  21.6568503  18.9261167  17.8746342
  22.0731199  18.6084996  17.2905640  33.8493333  11.5184515  17.0041859
  34.0542926  11.4506823  17.8498856  33.5219757  12.3243336  16.9363036
  33.8308581  11.6270456  17.1201514  28.5469484  18.8465083  18.7450827
  28.2432622  18.2921072  19.3461235  27.8448905  19.0257293  18.2578861
  28.3985694  18.7909866  18.7620533  27.6035581  16.1565603  13.3095529
  27.8795316  15.4384516  12.8973096  28.2034251  16.7550523  13.1016635
  27.7328846  16.1385974  13.2176290  37.1027021  12.0716279  16.4844624
  36.4901334  12.5586681  16.8698356  37.1991196  11.3959770  17.0282276
  37.0264918  12.0434588  16.6223483  31.1046102  13.8279120  11.5842124
  31.5589848  13.9989681  12.3089968  31.5786148  13.2147231  11.1839899
  31.2414422  13.7630006  11.6315885  25.0222250  14.4729444  21.5812880
  25.4823732  14.5468374  22.3188004  25.0678357  15.2710698  21.2312701
  25.0972805  14.6023591  21.6385636  26.6705600  15.1396139  26.1484907
  26.2791165  14.4929486  26.5840685  26.8391462  15.7307574  26.7679162
  26.6376510  15.1310407  26.3047613  40.7452049  23.1433216  21.9122141
  40.8035172  23.5919865  22.6582117  40.1118516  23.5532029  21.4752221
  40.6603344  23.2706951  21.9574689  34.3851143  28.7636758  18.3476887
  34.1870832  29.2527572  17.6533098  33.7638854  28.9677999  18.9261020
  34.2638708  28.8653296  18.3300110  28.4459122  20.5321655  12.6887131
  29.1901167  20.9195931  12.9270081  28.5919818  19.6879080  12.8527619
  28.5769707  20.4652128  12.7481101  30.3638697  12.3271914  17.7218992
  29.5174742  12.4994722  17.5960342  30.3609830  11.5221257  18.0584821
  30.2385847  12.2332943  17.7530119  31.4336998  16.1047128  18.5881050
  30.9596952  15.5788890  19.0986361  31.8055133  15.5576601  18.0195912
  31.4186887  15.9463125  18.5796198  37.6973728  21.1649504  19.9987831
  37.4571951  20.3255919  20.0030257  38.1765735  21.2449670  20.7228604
  37.7325912  21.0530903  20.1062633  33.3620497  16.9983683  11.6506804
  32.8343516  17.0812427  10.9612513  33.8216205  17.7401554  11.6471449
  33.3522348  17.1204345  11.5481499  39.6978915  17.9450961  17.9517090
  39.4588685  17.9046795  17.1137875  39.8612816  18.7922113  18.0782811
  39.6869219  18.0643046  17.8470572  36.3024945  22.3300910  23.8822135
  37.0259144  21.8773437  23.7033155  36.0374908  22.6105576  23.0994463
  36.3706219  22.3051879  23.7400850  25.1711814  16.9261084  20.6175014
  24.5464884  16.9379476  20.0100967  24.8357409  17.4021259  21.2666254
  25.0297306  16.9979601  20.6231583  25.3553562  15.2686202   6.6747699
  25.0066367  15.9205928   7.1379249  24.8750008  15.2543315   5.9471570
  25.2323806  15.3629256   6.6358791  32.9157580  25.5687246  10.7816461
  33.6391779  26.0345359  10.6381034  32.4758171  25.6360856  10.0314058
  32.9573272  25.6471083  10.6501243  32.3822862  10.7015467  23.3900672
  31.8863423  10.8979141  22.6992239  33.1391924  11.1008135  23.2189474
  32.4209687  10.7893201  23.2620809  29.6525742  14.3757813  19.9803983
  29.6768229  13.8417925  19.2916763  29.9037215  13.8675122  20.6429573
  29.6935660  14.2218717  19.9768627  25.9327064  13.1028631  19.3609727
  25.9725436  13.6037838  20.0744435  25.1076729  13.1939025  19.0915650
  25.8166590  13.1910448  19.4260265  25.1625211  13.1098034  27.2940037
  25.7877914  12.5660167  27.5669469  24.7075691  12.6292952  26.7247827
  25.1873471  12.9587515  27.2501631  25.7277471  17.8944733  12.1873744
  25.8680432  18.3917197  12.8902385  26.2260004  17.1931027  12.3287957
  25.8218552  17.8646711  12.3125323  25.7577694  18.7611844   9.5166321
  26.3922773  19.3572269   9.4515782  25.8403304  18.4615301  10.3312191
  25.8634245  18.8052752   9.6269407  38.7360259  21.2927321  22.3852685
  39.3278100  21.9324572  22.4170883  39.1719254  20.5950358  22.6744752
  38.8878691  21.2845671  22.4333517  27.3356676  14.6925819   9.4911763
  27.6572517  14.2128902   8.8371025  27.5983620  15.5025465   9.3002574
  27.4222702  14.7415717   9.3667255  32.7315831  14.0798013  21.8535242
  33.1570903  13.6270540  21.2418768  32.1172825  13.5258084  22.1300029
  32.7044477  13.9311989  21.8040267  22.2630681  20.9579684  12.7855867
  22.7722911  21.5544192  13.1667172  22.7364954  20.6905658  12.1032286
  22.4074057  21.0065500  12.7410389  33.1761430  29.6307951  10.9414522
  32.4590739  29.4568813  10.4761760  33.8268167  29.3960523  10.4090008
  33.1663280  29.5703744  10.7943740  31.1710054  10.5513113  15.2625819
  30.5278372  10.4010759  15.8310957  30.8309461  10.3055458  14.4974923
  31.0255132  10.4925235  15.2328834  35.7609401  18.5072540  14.6855827
  35.0900591  19.0502242  14.5568893  36.4549151  18.9767395  14.4437522
  35.7638268  18.6570811  14.6311355  35.9237528  14.9628423  17.5946201
  36.2765138  14.5358146  18.2691999  35.0652330  14.8779267  17.7247277
  35.8486973  14.8873164  17.7141211  24.6221213  17.5935943  15.6529047
  23.9033202  18.0100076  15.9201911  24.9933575  18.1590182  15.1020685
  24.5713145  17.7385224  15.6111854  33.9220794  18.2263792  21.5431043
  33.9018721  18.0447087  22.3965822  33.9699995  19.0975810  21.5190626
  33.9255435  18.3280330  21.6654338  28.4574591  30.8669710  17.3704670
  28.0434990  30.2043840  16.9808512  29.1421966  31.0147569  16.8500364
  28.4972963  30.7910368  17.2361167  31.8239886  30.0259795  18.1228287
  31.4256169  30.1362065  17.3549107  31.2091105  30.2341861  18.7054847
  31.6738775  30.0733363  18.0959586  30.3967788  16.6333943  10.9902427
  29.8032627  16.9550939  10.4386994  30.4343065  15.7875038  10.7823533
  30.3142177  16.5558271  10.8785198  37.3561588  10.0846835  18.5230513
  36.8492453   9.3775975  18.4551691  38.1529022   9.7540024  18.6531590
  37.3988827   9.9319987  18.5329508  33.2725604  16.5913447  14.4204177
  33.0439297  16.6146149  13.5782535  33.5323680  15.7670914  14.5399187
  33.2771792  16.4729527  14.3129374  22.4010547  16.8885496  26.6731639
  22.2313138  17.5486871  26.1279845  21.9576497  17.0992057  27.3944128
  22.3109881  17.0171478  26.6993268  26.3270367  15.1289994  15.7158372
  26.8027733  15.4907074  15.0808554  25.8258966  15.7846461  15.9958515
  26.3235726  15.2784183  15.6635113  39.5581728  24.6011762  11.5071377
  39.9415334  25.3503118  11.7369474  38.7625842  24.8477581  11.2483367
  39.4975510  24.7481456  11.5028951  28.3697020  17.2731194   9.0831756
  28.7495985  17.2910823   8.2982871  27.6289616  17.7185182   8.9622604
  28.3165858  17.3412968   8.9495325  35.9982310  15.5813385  14.6707335
  35.9976537  15.4262041  15.5291611  35.7938490  16.4276372  14.6148721
  35.9682088  15.6834005  14.7895274  33.7223162  20.2610887  18.3243542
  34.2176828  19.5433882  18.2847562  32.9122938  19.9581684  18.2098029
  33.6767056  20.1108533  18.3017268  29.1681774  24.1108700  10.4740546
  28.3593097  23.7875373  10.4273856  29.6756683  23.4041922  10.4068795
  29.1231441  23.9590016  10.4570841  35.7874981  23.0114574  21.0120671
  36.2130053  22.4888996  20.4591096  35.4231901  23.6095411  20.4909294
  35.7961584  23.0224801  20.8529680  29.2923076  11.4976309  24.2979923
  29.4250981  10.7007302  24.6260899  29.6768228  12.0242712  24.8778199
  29.3679404  11.4576226  24.4323426  32.3655431   8.4206635  20.8961016
  31.5601394   8.3104365  21.2128855  32.2362166   8.5219091  20.0390882
  32.2275564   8.4190305  20.8169057  35.8221391  14.5852127  21.4900713
  35.2384380  15.0861333  21.0778281  36.1425685  14.0781683  20.8565036
  35.7834567  14.5843962  21.3359220  28.3616190  13.4992722  11.7659388
  29.1831885  13.6691035  11.5241083  27.8985841  13.6539983  11.0425686
  28.4147353  13.5474455  11.6231032  26.9511522  11.4935484  22.5457817
  27.4955935  11.1526611  23.1362158  27.0048458  12.3520946  22.6879101
  27.0400642  11.5690743  22.6539690  42.2499189  34.2658348  18.3554669
  41.3937084  34.4266846  18.4063786  42.2966842  33.3950412  18.3759730
  42.1298300  34.1609150  18.3660735  36.6340328  43.8021066  14.1191900
  35.8823228  43.4236604  13.8907945  37.0826340  43.8339499  13.3710711
  36.5889995  43.7506673  13.9749403  45.5592905  40.5344873  27.9615125
  46.2659672  40.0396904  28.0902059  45.7480840  40.9753955  27.2317783
  45.6920811  40.5263224  27.8724170  45.0951010  36.3250392  20.9986320
  45.6406970  37.0035478  21.0580290  45.0367886  36.1837853  20.1387902
  45.1666924  36.4042393  20.8798381  38.2125084  43.8139458  16.3854673
  38.3135447  43.0039812  16.6951801  37.6166830  43.7196404  15.7554351
  38.1397623  43.6804486  16.3380911  31.4090129  39.8359744  16.0107007
  31.1740313  39.0027397  15.9039275  31.5475769  40.1164410  15.1968207
  31.3945791  39.7543248  15.8749362  33.7080216  32.0045475  18.9091314
  33.0885248  31.4138122  18.7401329  33.6064080  32.5956910  18.2755637
  33.6017892  32.0049558  18.7896304  38.7546404  41.7429022  13.1589391
  39.0762245  42.2834229  12.5550699  39.4018500  41.1725793  13.2911680
  38.8972459  41.7388197  13.0896426  40.8048112  33.7445017  13.2423777
  41.5028276  33.9233144  13.7345241  41.1200444  33.2215356  12.6194167
  40.9543449  33.6938789  13.2225787  33.4349349  35.5497757  21.1534883
  33.3108046  36.1360202  21.7884702  34.0867634  35.0557952  21.4547158
  33.5122999  35.5636561  21.2920813  40.9936047  40.1315462  13.2303569
  41.4329683  39.5232562  13.6758342  40.8440710  39.7522835  12.4589034
  41.0357513  39.9853933  13.1822736  38.4607690  38.7259474  20.4322394
  39.1056693  38.2331917  20.1133343  38.7009467  38.8684260  21.2588473
  38.5918275  38.6736916  20.5071928  40.9993782  41.5714380  20.0829287
  41.2817024  40.7765785  19.8616043  41.7279942  42.0494967  20.1034348
  41.1483345  41.5248976  20.0532302  38.9774975  29.1137414  17.3245052
  38.6478305  29.5648557  16.6548751  38.3019977  29.0353577  17.8718058
  38.8285412  29.1688549  17.3068275  46.1851383  25.1022936  15.5694663
  45.8704824  25.7926415  16.0015085  45.6678325  25.0467719  14.8680163
  46.0615854  25.1957825  15.5291612  45.5263817  35.1027437  11.6832073
  44.9975288  35.3187071  12.3429379  46.0488837  35.7963576  11.6033043
  45.5252270  35.2370574  11.7687672  37.4163425  38.9990654  10.4839541
  36.8320640  39.5040686  10.8905405  37.0133520  38.7733041   9.7436133
  37.2702729  39.0398902  10.4344566  32.9707453  44.7145415  17.2863213
  32.4875032  45.4395905  17.2622796  33.7830772  45.0121545  17.3973370
  33.0198201  44.8647769  17.2990492  39.0421607  43.5077596  19.8913027
  38.5248549  43.1485011  19.2874335  39.7395999  42.9839770  19.9019093
  39.0687189  43.3775284  19.8043286  42.6985199  43.9572410  25.8529200
  42.7868545  43.7698550  26.7007411  43.1274912  43.3109840  25.4534047
  42.7747302  43.8335418  25.9200952  40.2655659  43.2403570  24.8346862
  39.7026494  42.8276180  25.3586524  41.0276683  43.1656476  25.2540006
  40.2950108  43.1680971  24.9739863  37.1830929  27.1749702  12.8068000
  37.9376897  27.5428019  12.5685050  37.0058464  27.5489256  13.5747179
  37.2685408  27.2847890  12.8852888  35.8251651  45.2301591  17.4383493
  36.5272230  44.7153580  17.4956249  35.7449134  45.5575743  18.2430368
  35.9175411  45.2015817  17.5656285  36.8730557  35.4677178  26.5663908
  37.0451061  35.3583073  27.4149189  37.4099915  36.1131584  26.3295100
  36.9775561  35.5469180  26.6569004  35.5387994  29.5820021   9.5046113
  35.3563567  29.7991902   8.6787105  36.4013607  29.6959034   9.5604727
  35.6392584  29.6309919   9.3900600  35.1502426  41.4207943  16.9469101
  35.9891325  41.6530876  16.9942862  35.1814195  40.5512255  16.8776136
  35.2784144  41.3264890  16.9433745  35.7755129  41.8408818  21.2482406
  36.3153354  41.6979949  21.9185778  35.0925075  42.2405569  21.6166432
  35.7547283  41.8788489  21.4016828  41.2187713  26.5846432  12.5395136
  41.9473874  26.4062387  12.0933293  41.3082606  27.4264511  12.7502315
  41.3394375  26.6830310  12.5048654  45.1996014  37.5199819  16.4427430
  45.9553529  37.9531333  16.4816339  45.3058338  36.8704589  17.0162066
  45.3266185  37.4877303  16.5325456  48.2376185  41.3473096  17.1929833
  47.8011417  41.3509839  17.9488805  47.9039101  42.0278595  16.7609411
  48.1238805  41.4485552  17.2410666  42.8105259  43.3881429  28.5172984
  43.5945675  43.5012277  28.8828726  42.6101853  42.5622566  28.7131670
  42.8971284  43.2828148  28.6007370  31.1792274  38.0609109  21.4016828
  30.9130689  37.2448226  21.5607818  31.1930838  38.1062265  20.5312343
  31.1416996  37.9466014  21.2970310  35.0850021  32.8594194   8.0168586
  34.3708198  32.5732373   8.4291018  35.5693990  33.1990819   8.6574973
  35.0509384  32.8675843   8.1724221  35.9290881  31.5987487  24.0483835
  35.2362677  31.1284467  24.2944567  36.5451208  31.3725792  24.6225542
  35.9175410  31.4954619  24.1692988  42.9675652  45.2991531  22.1639439
  42.1690898  45.0591031  22.4213308  43.4161664  45.3505924  22.9106487
  42.9150263  45.2713922  22.3124364  31.5885688  38.8467889  18.6828572
  31.4061261  38.8214775  17.8300864  32.3235357  39.3166826  18.7217481
  31.6699752  38.9129251  18.5626490  47.6585362  39.0819399  15.8261459
  47.8940951  39.2264597  14.9988310  47.8074926  39.8461807  16.2192973
  47.7151165  39.2158453  15.7625063  34.6531439  35.5652891  25.1910681
  35.3771412  35.5505922  25.6775575  34.7547576  36.2748247  24.6932649
  34.7749649  35.6677595  25.1889467  42.0276389  39.0451976  30.0559628
  41.2349370  39.3595488  30.2412247  42.1425316  39.2603444  29.2180412
  41.9271799  39.1235813  29.9597962  44.7007708  35.7685967  14.3454643
  44.7954562  36.5075261  14.7994269  44.0766551  35.3403443  14.7789208
  44.6216738  35.8147288  14.4762791  42.9560182  38.9472180  24.9944924
  43.5299043  38.3099424  25.1493488  42.8774985  38.9476262  24.1254582
  43.0293417  38.8537291  24.8891335  31.5556598  35.7261389  18.8327638
  32.1330101  35.5897840  19.4719884  30.8570660  35.2697173  19.0873223
  31.5377620  35.6383655  18.9649928  38.3123900  37.3795445  17.0466122
  38.0543145  36.5467180  17.0197421  38.3672383  37.6053058  16.2058622
  38.2823678  37.2893216  16.9186258  43.3924950  29.4823896  17.1470214
  42.6881277  28.9933081  17.3054134  43.4409925  29.4946370  16.2758659
  43.2955002  29.4113544  17.0409554  37.2858612  34.9333207  17.5331016
  36.7108204  35.0925376  18.1694977  36.9094289  34.2968616  17.0699467
  37.1461425  34.8631020  17.5585575  40.9531901  33.4056557  22.3923395
  40.5646334  32.9810774  21.7375586  40.2886599  33.6538706  22.9000422
  40.7978829  33.3795278  22.3711263  44.7758263  27.1031185  19.9047379
  45.1568774  26.4209356  20.2915253  43.9721547  26.8140787  19.7223044
  44.7134724  26.9598234  19.9351435  42.0570839  37.6355161  10.5900202
  42.8711478  37.9270054  10.4782973  41.9929981  36.9815024  10.0158495
  42.1673578  37.5820356  10.4889039  37.9278748  41.1076679  15.7172514
  38.5652695  40.8688426  16.2624307  38.3533819  41.3113838  14.9825675
  38.0854914  41.1027689  15.6889671  32.6191390  43.3465015  19.6006818
  32.6595535  43.6179866  18.7726597  33.1785914  43.8706923  20.0164606
  32.7074736  43.4640770  19.5398706  38.5681563  36.3278968  10.0547403
  38.9526715  36.1086675  10.8063948  38.3193183  37.1541914  10.1848480
  38.5883635  36.4177115  10.1848480  38.7350103  29.6085384  29.7709988
  38.4203544  30.3784946  29.5079550  38.4140036  29.0455640  29.1862214
  38.6409022  29.6395652  29.6451337  40.3100220  41.5849101  17.3966300
  40.3839228  41.4224273  18.2508150  41.1269726  41.7739291  17.1526782
  40.4416578  41.5885844  17.4864326  34.0705976  41.9306964  14.4260744
  33.2444094  42.1768701  14.2995022  34.1317967  41.8519045  15.2922802
  33.9580143  41.9551913  14.5349688  36.2882000  27.9975905  15.3856184
  35.4204425  28.0698505  15.4513793  36.5757204  28.7997984  15.5744159
  36.2021748  28.1270052  15.4230950  45.4114889  28.1453765  23.7167506
  46.1568481  27.9563575  23.3030931  44.9952193  28.6712002  23.1581362
  45.4599863  28.1955910  23.5732079  39.4399550  39.3501590  23.2132904
  38.9411244  40.0617358  23.2917793  40.2499775  39.6702257  23.1751066
  39.4855657  39.5028439  23.2189473  36.7910721  46.5251227  15.1939923
  36.5711016  46.2348581  15.9866590  36.5705243  45.8666182  14.6657836
  36.7258315  46.3850935  15.2328832  35.7027668  38.6124543  17.4595625
  35.4140917  37.9862015  17.9941352  36.5711016  38.5544831  17.5260305
  35.7887920  38.5112088  17.5486580  46.4905566  33.7559327  17.7777607
  46.1470332  33.0349662  18.1284857  46.5898608  33.5473178  16.9355965
  46.4547609  33.6183530  17.7049287  35.9059941  40.2519794  13.3837990
  36.6605909  40.6332833  13.5973453  35.3130554  40.7030938  13.8384687
  35.9296655  40.3748622  13.4820868  38.3666608  32.2082635  28.5095202
  37.5566384  32.5140414  28.3985045  38.8441295  32.9288217  28.6247786
  38.3170087  32.3597236  28.5102273  37.2258168  41.4228356  18.7578105
  36.7038922  41.5628647  19.4429970  37.6132188  40.6639020  18.9480223
  37.2061869  41.3313880  18.8879182  34.2149352  31.4734164  12.8273060
  33.9274148  31.1035435  12.0905007  34.9019820  31.9429020  12.5656765
  34.2738249  31.4881134  12.6788136  38.6524494  38.4532375  14.1559596
  38.4567276  39.0607109  13.5619899  38.8758839  37.7600319  13.6751270
  38.6559135  38.4409900  13.9975677  37.0503024  35.3387113  14.2740465
  37.7725676  35.5028271  13.8144271  36.5711016  36.0596777  14.1679805
  37.0866754  35.4685342  14.1906079  45.0096531  31.6750911  19.6537150
  44.1707632  31.7012190  19.4175413  45.0800899  32.3221647  20.2342496
  44.8964925  31.7747037  19.7046267  34.7010640  37.7445185  23.3794605
  35.2131737  38.0229438  22.7303364  34.4146983  38.4834479  23.7457418
  34.7345504  37.8947539  23.3384483  43.4565810  28.5736288  14.3864766
  44.1592162  28.3744037  13.9084724  43.1909998  27.8012231  14.6933609
  43.5212442  28.4299254  14.3610207  31.7877547  32.2515377  13.6758341
  31.8893683  33.0541538  14.0039317  32.5833433  32.0502713  13.3781422
  31.9205452  32.3401276  13.6793697  38.2194366  29.8371574  23.4395646
  38.0277563  29.8526708  24.2895070  39.0692962  30.0335248  23.4162301
  38.3170088  29.8685925  23.5618941  32.6041279  32.3662555  21.4179463
  32.4626771  31.5146496  21.5423971  32.8881842  32.4091216  20.5941669
  32.6249125  32.2462305  21.3147087  42.7579871  34.2029645  15.5623951
  42.5114585  34.1225396  16.3960740  43.0864994  33.4183113  15.3686479
  42.7701115  34.0755911  15.6571474  46.6527920  40.9113005  19.3510732
  46.5142279  41.6094050  19.8559475  45.8727918  40.7561661  18.9946914
  46.5171147  40.9913171  19.3737006  44.9906005  37.2109380  25.6033114
  44.9854044  36.3389197  25.6075540  45.6966999  37.4097549  25.1302570
  45.0951009  37.1113254  25.5340149  38.7176898  36.9386364  24.9746934
  38.8620274  37.5187572  24.3390044  39.0652547  37.3162661  25.6796789
  38.7904360  37.0807068  24.9845929  40.8896816  36.1376532  22.7572066
  40.1420130  36.3307547  22.3520344  41.0438341  35.3121752  22.5196187
  40.8019243  36.0441644  22.6617472  37.7904653  45.1289136  21.8407961
  37.9394217  44.5692052  21.1881365  38.5704655  45.2081137  22.2240480
  37.9278747  45.0574701  21.8004910  40.3157954  45.3003779  23.1192452
  40.2401625  44.6312589  23.6743240  40.2447813  46.0021567  23.6333118
  40.2938561  45.3048686  23.2769300  41.1298593  30.0327083  23.6467469
  41.5871207  30.7651057  23.7740262  41.2054922  29.6093548  24.4054725
  41.2089563  30.0784321  23.7768546  33.3731584  30.2792903  24.7356913
  32.8373773  29.6673261  25.0517680  33.4349349  30.8541039  25.3890580
  33.3027217  30.2739830  24.8792340  45.6025919  23.2116958  17.5161312
  45.7209487  23.6693421  16.7828615  45.4288094  22.4062219  17.2297530
  45.5945090  23.1610730  17.3662246  40.9728201  43.8204777  13.9516058
  41.7378092  43.5514421  13.6298722  40.8706291  43.3354788  14.6686121
  41.0709696  43.7094342  14.0095885  39.0080971  32.0229187  20.4909293
  38.2177045  31.8420647  20.8126629  39.4041594  31.2456139  20.4739588
  38.9497847  31.8816648  20.5361842  44.3924657  39.6571617  18.2168739
  43.7169659  39.4256849  18.7182126  44.4017033  39.0492800  17.5910844
  44.2943162  39.5330542  18.1984892  41.5218801  34.4989446  24.9732792
  41.4577942  35.3599402  24.8452929  41.6615989  34.1821439  24.1728344
  41.5334271  34.5789613  24.8361005  40.2037895  37.1921585  19.1148995
  39.7800144  37.3926084  18.3788014  40.0282750  36.3450433  19.2273295
  40.1148776  37.0970367  19.0222685  35.4920340  37.6873637  14.5476968
  35.6484959  37.6220440  15.4032960  35.8320933  38.4622189  14.3355647
  35.5653575  37.7922835  14.6431562  42.0299484  37.0631520  13.4170331
  42.5715030  36.5601901  13.8808952  42.3446044  37.0096715  12.6059816
  42.1563882  36.9810941  13.3654143  45.9016592  41.2734168  30.5297243
  46.7151457  41.0019317  30.6902376  45.7411558  40.9741708  29.7257439
  45.9986540  41.1889094  30.4342649  43.1788754  31.9567825  23.4692631
  43.3930723  31.3178739  22.9155985  42.5622653  32.4013649  23.0400493
  43.1194083  31.9277969  23.3243063  32.0654601  34.8708587  14.8637735
  32.4453566  35.2893132  14.1998002  31.4909966  35.4522043  15.1706578
  32.0365926  35.0186446  14.8114476  45.3427842  33.5656890  24.4075939
  44.5304524  33.2582780  24.4889111  45.8017776  33.0855890  24.9718651
  45.2908227  33.4493382  24.5030533  44.7533097  41.4436562  14.8552883
  44.3947751  41.6151205  15.6316915  44.2671807  41.9049768  14.2980881
  44.6291793  41.5375533  14.8878152  42.5703483  25.0667761  18.4579974
  41.6997040  25.0406482  18.4113284  42.8243824  24.8944953  17.6405820
  42.4797043  25.0377904  18.3300111  42.4381349  34.9716962  29.1904641
  42.9080981  35.5959078  29.5772515  42.4843230  34.3033937  29.7497856
  42.5149225  34.9651642  29.3304712  39.5952623  27.0773989  19.9153445
  39.0791112  26.3854180  20.0405024  39.0346552  27.7444766  19.8616043
  39.4359136  27.0737247  19.9259511  41.6644856  27.6166949  21.7446297
  41.2776610  27.6415981  22.5259827  41.1777794  27.0508628  21.2920814
  41.5357365  27.5362700  21.7934201  45.9137836  42.3340458  25.8020084
  46.5517556  41.8400654  25.4682540  45.2711927  42.2617858  25.2172311
  45.9132062  42.2499467  25.6662439  47.6394836  34.1829604  20.3685999
  47.2122444  34.0955953  19.6134099  47.0020889  34.2907379  20.9540843
  47.4824443  34.1862264  20.3431441  41.3301998  24.5033935  24.0356557
  41.9595116  25.0394235  23.7577627  41.4987861  24.4111293  24.8870123
  41.4479793  24.5695297  24.1205085  41.1315913  29.2905129  26.3082969
  41.9589342  29.0190278  26.3641583  41.1523759  30.0865971  26.6646787
  41.2568763  29.3684883  26.3698152  35.7085403  36.4368992  19.4953229
  34.8673409  36.3372866  19.7032123  35.9175411  37.2064472  19.8467550
  35.6150095  36.5361035  19.5780544  33.1860970  34.0588529  17.3237980
  32.7917668  34.1331541  16.5488090  32.6301087  34.4446475  17.8746342
  33.0463782  34.1270304  17.2905640  44.8225917  27.0369823  17.0041859
  45.0275510  26.9692131  17.8498856  44.4952341  27.8428644  16.9363036
  44.8041165  27.1455763  17.1201514  39.5202068  34.3650391  18.7450827
  39.2165205  33.8106379  19.3461235  38.8181489  34.5442601  18.2578861
  39.3718278  34.3095174  18.7620533  38.5768165  31.6750911  13.3095529
  38.8527899  30.9569824  12.8973096  39.1766834  32.2735831  13.1016635
  38.7061429  31.6571282  13.2176290  37.5820419  41.5800112  23.4522925
  37.4740774  41.5902174  24.3184983  37.7916200  42.4054892  23.2627878
  37.5970530  41.7041187  23.5527016  48.0759604  27.5901587  16.4844624
  47.4633918  28.0771989  16.8698356  48.1723779  26.9145078  17.0282276
  47.9997502  27.5619896  16.6223483  42.0778685  29.3464428  11.5842124
  42.5322432  29.5174989  12.3089968  42.5518731  28.7332539  11.1839899
  42.2147005  29.2815314  11.6315885  35.5994211  38.8312754  20.9144862
  35.0082144  39.4722253  20.8847877  36.3615234  39.2550372  20.8876162
  35.6242471  38.9888593  20.9060009  35.9954834  29.9914752  21.5812880
  36.4556315  30.0653682  22.3188004  36.0410940  30.7896006  21.2312701
  36.0705389  30.1208899  21.6385636  37.6438183  30.6581447  26.1484907
  37.2523748  30.0114794  26.5840685  37.8124046  31.2492882  26.7679162
  37.6109094  30.6495715  26.3047613  39.4191705  36.0506963  12.6887131
  40.1633750  36.4381239  12.9270081  39.5652402  35.2064388  12.8527619
  39.5502290  35.9837436  12.7481101  41.3371281  27.8457222  17.7218992
  40.4907326  28.0180029  17.5960342  41.3342413  27.0406565  18.0584821
  41.2118431  27.7518251  17.7530119  42.4069581  31.6232436  18.5881050
  41.9329535  31.0974198  19.0986361  42.7787717  31.0761909  18.0195912
  42.3919470  31.4648433  18.5796198  32.7842611  33.6203943  23.9564596
  33.6468224  33.5199652  23.8701926  32.4534394  33.0398652  23.3950168
  32.8627808  33.5195569  23.8610002  44.3353081  32.5168991  11.6506804
  43.8076099  32.5997735  10.9612513  44.7948789  33.2586862  11.6471449
  44.3254931  32.6389653  11.5481499  47.2757529  37.8486218  23.8822135
  47.9991728  37.3958745  23.7033155  47.0107491  38.1290884  23.0994463
  47.3438802  37.8237187  23.7400850  36.1444397  32.4446392  20.6175014
  35.5197467  32.4564784  20.0100967  35.8089992  32.9206567  21.2666254
  36.0029889  32.5164909  20.6231583  36.3286146  30.7871510   6.6747699
  35.9798950  31.4391235   7.1379249  35.8482592  30.7728623   5.9471570
  36.2056390  30.8814564   6.6358791  32.8570073  40.5046852  22.0578779
  32.3269997  39.8139291  22.1073753  33.1295166  40.4957037  21.2291487
  32.8194795  40.4013984  21.9426195  43.0576318  37.9470096  22.0317150
  42.4433312  37.4028147  22.3265785  43.5743603  37.4334333  21.5522966
  43.0431981  37.7906505  22.0041379  42.2972616  39.0174366  19.7661449
  41.8700224  38.3924085  19.3326884  42.2897560  38.7349288  20.5920456
  42.2331757  38.8827147  19.8241276  35.4135143  34.0539540  22.8349883
  35.5728629  33.2982864  23.2401605  35.2328036  34.6030479  23.4890620
  35.4100502  34.0233353  22.9912589  43.3555446  26.2200775  23.3900672
  42.8596007  26.4164449  22.6992239  44.1124508  26.6193443  23.2189474
  43.3942270  26.3078509  23.2620809  40.6258325  29.8943121  19.9803983
  40.6500812  29.3603233  19.2916763  40.8769799  29.3860430  20.6429573
  40.6668244  29.7404025  19.9768627  28.1365915  37.1774616  19.4147127
  28.0309364  37.1321460  18.5499211  27.3866135  37.5228397  19.6961412
  28.0101518  37.2215524  19.3284457  36.9059648  28.6213939  19.3609727
  36.9458019  29.1223146  20.0744435  36.0809312  28.7124333  19.0915650
  36.7899173  28.7095756  19.4260265  39.0889260  38.1874679  27.4630022
  38.2384891  38.3246394  27.5987667  39.2517388  37.4538457  27.9077723
  38.9873124  38.0988780  27.5485621  38.3274011  35.1374449  21.6583626
  37.4965941  35.3048267  21.4518874  38.2725528  34.7610400  22.4432511
  38.1963426  35.1064180  21.7432154  36.1357794  28.6283342  27.2940037
  36.7610498  28.0845475  27.5669469  35.6808274  28.1478260  26.7247827
  36.1606055  28.4772823  27.2501631  36.7010055  33.4130041  12.1873744
  36.8413016  33.9102505  12.8902385  37.1992588  32.7116335  12.3287957
  36.7951136  33.3832019  12.3125323  36.7310277  34.2797152   9.5166321
  37.3655357  34.8757577   9.4515782  36.8135888  33.9800609  10.3312191
  36.8366828  34.3238060   9.6269407  38.3089260  30.2111127   9.4911763
  38.6305101  29.7314210   8.8371025  38.5716204  31.0210773   9.3002574
  38.3955285  30.2601025   9.3667255  41.5386233  41.2330001  23.0110579
  41.0311324  41.7865848  23.4551209  41.2412879  41.2938291  22.1929353
  41.4191118  41.3236313  22.9559035  43.7048415  29.5983321  21.8535242
  44.1303487  29.1455847  21.2418768  43.0905408  29.0443392  22.1300029
  43.6777060  29.4497297  21.8040267  33.2363265  36.4764992  12.7855867
  33.7455494  37.0729500  13.1667172  33.7097537  36.2090966  12.1032286
  33.3806641  36.5250808  12.7410389  42.1442638  26.0698421  15.2625819
  41.5010956  25.9196067  15.8310957  41.8042045  25.8240766  14.4974923
  41.9987715  26.0110543  15.2328834  46.7341984  34.0257848  14.6855827
  46.0633174  34.5687550  14.5568893  47.4281735  34.4952703  14.4437522
  46.7370852  34.1756119  14.6311355  40.7828718  46.1654560  19.9167586
  40.5594372  45.4073389  20.2851612  40.2938561  46.1952581  19.1948025
  40.6772167  46.0576784  19.8644327  46.8970112  30.4813731  17.5946201
  47.2497722  30.0543454  18.2691999  46.0384913  30.3964575  17.7247277
  46.8219556  30.4058472  17.7141211  35.5953797  33.1121251  15.6529047
  34.8765786  33.5285384  15.9201911  35.9666159  33.6775490  15.1020685
  35.5445729  33.2570532  15.6111854  44.8953378  33.7449100  21.5431043
  44.8751305  33.5632395  22.3965822  44.9432578  34.6161118  21.5190626
  44.8988019  33.8465638  21.6654338  42.8399707  40.3336292  27.4679519
  42.7995562  39.6885969  26.8824675  43.6523026  40.2772909  27.7804931
  42.9542861  40.2295259  27.4276469  39.4307175  46.3855018  17.3704670
  39.0167574  45.7229148  16.9808512  40.1154549  46.5332877  16.8500364
  39.4705547  46.3095676  17.2361167  42.7972469  45.5445103  18.1228287
  42.3988752  45.6547373  17.3549107  42.1823689  45.7527169  18.7054847
  42.6471358  45.5918671  18.0959586  41.3700371  32.1519251  10.9902427
  40.7765210  32.4736247  10.4386994  41.4075649  31.3060346  10.7823533
  41.2874760  32.0743579  10.8785198  44.2458188  32.1098755  14.4204177
  44.0171881  32.1331457  13.5782535  44.5056264  31.2856222  14.5399187
  44.2504376  31.9914835  14.3129374  38.5277416  33.9633228  24.0229277
  38.0156319  33.3554411  24.3814308  38.3556912  34.6789821  24.4903253
  38.4267053  33.9796528  24.1445501  33.3743131  32.4070804  26.6731639
  33.2045721  33.0672179  26.1279845  32.9309081  32.6177365  27.3944128
  33.2842464  32.5356786  26.6993268  37.3002950  30.6475302  15.7158372
  37.7760316  31.0092382  15.0808554  36.7991550  31.3031769  15.9958515
  37.2968309  30.7969490  15.6635113  42.4046486  31.8857473  26.4631533
  42.9617917  31.6571283  25.8309998  42.0807551  32.6463139  26.1866745
  42.4392897  31.9641310  26.3288030  30.2745195  35.3117669  21.9320129
  29.7271915  34.6418315  22.0500997  31.0637574  34.9447517  21.9963596
  30.3097379  35.1582656  21.9588829  40.1229604  34.9725126  27.4283540
  40.8740931  35.2876803  27.7423094  40.3152180  34.7704297  26.6017461
  40.2621018  34.9892508  27.3526935  39.3429603  32.7916501   9.0831756
  39.7228568  32.8096131   8.2982871  38.6022199  33.2370490   8.9622604
  39.2898441  32.8598276   8.9495325  46.9714894  31.0998693  14.6707335
  46.9709120  30.9447349  15.5291611  46.7671074  31.9461680  14.6148721
  46.9414672  31.2019313  14.7895274  29.0332165  34.5238477  19.0866152
  28.8553926  34.0715086  19.8121067  28.7451187  35.3264639  19.2704629
  28.9645118  34.5761035  19.2209655  44.6955746  35.7796194  18.3243542
  45.1909411  35.0619190  18.2847562  43.8855522  35.4766992  18.2098029
  44.6499639  35.6293841  18.3017268  40.1414357  39.6294008  10.4740546
  39.3325680  39.3060681  10.4273856  40.6489266  38.9227230  10.4068795
  40.0964024  39.4775324  10.4570841  30.7704635  37.0566201  16.1987911
  29.9050154  37.0451891  16.0870682  30.8703451  36.8696424  17.0459050
  30.6578802  37.0272262  16.3076855  46.7607565  38.5299882  21.0120671
  47.1862636  38.0074304  20.4591096  46.3964485  39.1280719  20.4909294
  46.7694167  38.5410109  20.8529680  36.3961645  46.8264099  19.7718016
  36.7108204  47.6400488  19.7795798  36.8055058  46.4414318  20.4400175
  36.5029743  46.8892802  19.8722108  43.3486164  42.2434146  17.3421828
  43.8197342  42.9574409  17.5111813  43.6846343  41.6432896  17.8781698
  43.4681279  42.2605611  17.4454204  45.4363149  43.8535460  29.5213900
  45.5460114  43.0644020  29.8770647  45.7654045  43.7641396  28.7188238
  45.5015555  43.7241313  29.4556291  40.2655659  27.0161617  24.2979923
  40.3983565  26.2192610  24.6260899  40.6500812  27.5428020  24.8778199
  40.3411988  26.9761534  24.4323426  43.9860111  42.0352080  24.1049521
  43.4381057  41.4109964  23.8369586  44.4473139  42.2246352  23.3893600
  43.9727320  41.9711131  23.9599952  43.3388014  23.9391943  20.8961016
  42.5333978  23.8289673  21.2128855  43.2094750  24.0404399  20.0390882
  43.2008147  23.9375613  20.8169057  46.7953975  30.1037435  21.4900713
  46.2116964  30.6046641  21.0778281  47.1158269  29.5966991  20.8565036
  46.7567150  30.1029270  21.3359220  39.3348774  29.0178030  11.7659388
  40.1564468  29.1876343  11.5241083  38.8718425  29.1725291  11.0425686
  39.3879936  29.0659763  11.6231032  37.9244106  27.0120792  22.5457817
  38.4688519  26.6711919  23.1362158  37.9781042  27.8706253  22.6879101
  38.0133225  27.0876051  22.6539690  33.7374665  40.7737208  19.4196625
  34.3419522  40.7333042  18.7910445  33.5301977  41.6208360  19.4500680
  33.7963562  40.8925210  19.3312741  43.5518437  43.0403153  20.6358862
  44.3716811  42.8966119  20.8975157  43.2712515  43.6649352  21.1775300
  43.6315180  43.1113505  20.7546801  28.9725947  39.7571825  19.2895548
  28.8750225  38.9468097  19.5985604  29.7554817  39.7363619  18.9041816
  29.0742084  39.6338916  19.2782411  26.7744064  10.1509870   4.7209576
  27.4181520  10.5923034   5.1105734  27.1000320   9.3463296   4.6339834
  26.9175893  10.0975065   4.7655053  29.7212022   2.9907203   7.0169334
  30.0035265   2.1958609   6.7956090  30.4498182   3.4687790   7.0374395
  29.8701586   2.9441800   6.9872349  27.7639848   4.9270419   6.8253074
  27.2466789   4.5677834   6.2214382  28.4614239   4.4032594   6.8359140
  27.7905429   4.7968107   6.7383333  31.4203440   5.3765233  12.7869247
  31.5086786   5.1891374  13.6347457  31.8493152   4.7302663  12.3874094
  31.4965542   5.2528241  12.8540998  28.9873900   4.6596393  11.7686909
  28.4244734   4.2469003  12.2926570  29.7494923   4.5849299  12.1880052
  29.0168348   4.5873794  11.9079910  24.4973369   3.2601642   8.1822453
  25.0371594   3.1172773   8.8525825  23.8143316   3.6598392   8.5506479
  24.4765523   3.2981313   8.3356875  31.5323499   4.8074252  15.4513031
  32.3163916   4.9205100  15.8168773  31.3320094   3.9815389  15.6471716
  31.6189524   4.7020972  15.5347417  31.6893892   6.7184354   9.0979486
  30.8909138   6.4783854   9.3553355  32.1379904   6.7698747   9.8446534
  31.6368504   6.6906746   9.2464410  28.1617791   0.7694414  10.1472951
  27.6629484   1.4810181  10.2257839  28.9718015   1.0895080  10.1091113
  28.2073898   0.9221262  10.1529519  26.5122894   6.5481959   8.7748008
  26.6612458   5.9884875   8.1221412  27.2922896   6.6273961   9.1580527
  26.6496987   6.4767524   8.7344957  29.0376194   6.7196602  10.0532499
  28.9619866   6.0505412  10.6083287  28.9666054   7.4214390  10.5673165
  29.0156801   6.7241509  10.2109347  28.4267829  10.1264922   8.5110499
  28.9163759   9.4275711   8.3286164  27.8552061   9.8288792   9.0986557
  28.4152359   9.9791145   8.5711540  34.6910333   4.4453090   9.3765487
  35.4802711   4.0942154   9.4967569  34.8653931   5.2589478   9.1142121
  34.8330615   4.5138947   9.3553355  26.3038659   2.9992935  10.3862971
  26.1959014   3.0094997  11.2525030  26.5134441   3.8247716  10.1967925
  26.3188770   3.1234010  10.4867063  34.0801967   5.7014889   5.2816934
  33.8821656   6.1905704   4.5873145  33.4589678   5.9056131   5.8601067
  33.9589532   5.8031427   5.2640157  30.2604473   2.6522825   9.9450626
  29.7529564   3.2058672  10.3891256  29.9631119   2.7131115   9.1269400
  30.1409358   2.7429136   9.8899082  29.5046958   7.5847383   6.8507632
  29.2812613   6.8266212   7.2191659  29.0156802   7.6145404   6.1288072
  29.3990407   7.4769607   6.7984373  31.5190709   6.9637926   5.0568334
  31.1206993   7.0740197   4.2889154  30.9041929   7.1719993   5.6394893
  31.3689599   7.0111494   5.0299633  25.1179885   8.2456923   6.7058063
  25.4326444   9.0593311   6.7135845  25.5273298   7.8607141   7.3740222
  25.2247983   8.3085625   6.8062155  32.0704405   3.6626969   4.2761875
  32.5415583   4.3767232   4.4451860  32.4064583   3.0625720   4.8121745
  32.1899520   3.6798434   4.3794251  34.1581389   5.2728283  16.4553947
  34.2678355   4.4836843  16.8110694  34.4872286   5.1834219  15.6528285
  34.2233795   5.1434136  16.3896338  32.7078351   3.4544904  11.0389568
  32.1599297   2.8302787  10.7709633  33.1691380   3.6439176  10.3233647
  32.6945560   3.3903954  10.8939999  32.2736677   4.4595976   7.5698909
  33.0935051   4.3158942   7.8315204  31.9930755   5.0842175   8.1115347
  32.3533421   4.5306328   7.6886848  36.3291152  20.7399197   1.0531947
  35.5774052  20.3614735   0.8247992  36.7777164  20.7717631   0.3050757
  36.2840819  20.6884804   0.9089449  45.2543729  17.4723005  14.8955172
  45.9610496  16.9775035  15.0242106  45.4431664  17.9132086  14.1657830
  45.3871635  17.4641355  14.8064217  41.3220403  23.1138835   2.4228606
  41.7059783  23.6825734   1.8833381  41.2579545  22.3888345   1.9434422
  41.3693831  23.0914299   2.2722468  37.9075908  20.7517589   3.3194720
  38.0086271  19.9417943   3.6291847  37.3117654  20.6574535   2.6894398
  37.8348447  20.6182617   3.2720958  37.7476648  25.6695178   4.7209576
  38.3914103  26.1108342   5.1105734  38.0732903  24.8648604   4.6339834
  37.8908477  25.6160373   4.7655053  31.1040953  16.7737876   2.9447053
  30.8691137  15.9405528   2.8379322  31.2426593  17.0542541   2.1308254
  31.0896615  16.6921379   2.8089408  33.4031040   8.9423606   5.8431361
  32.7836072   8.3516253   5.6741376  33.3014904   9.5335041   5.2095684
  33.2968716   8.9427689   5.7236351  33.1300173  12.4875888   8.0874930
  33.0058870  13.0738333   8.7224749  33.7818458  11.9936084   8.3887205
  33.2073822  12.5014692   8.2260859  38.1558514  15.6637605   7.3662441
  38.8007517  15.1710048   7.0473390  38.3960291  15.8062391   8.1928519
  38.2869099  15.6115047   7.4411974  40.6944605  18.5092511   7.0169334
  40.9767848  17.7143916   6.7956090  41.4230766  18.9873098   7.0374395
  40.8434169  18.4627108   6.9872349  32.6658277  21.6523546   4.2203260
  32.1825856  22.3774036   4.1962843  33.4781596  21.9499676   4.3313417
  32.7149025  21.8025900   4.2330539  38.7372431  20.4455727   6.8253074
  38.2199373  20.0863142   6.2214382  39.4346823  19.9217902   6.8359140
  38.7638012  20.3153415   6.7383333  42.3936023  20.8950541  12.7869247
  42.4819369  20.7076682  13.6347457  42.8225736  20.2487971  12.3874094
  42.4698126  20.7713549  12.8540998  39.9606483  20.1781701  11.7686909
  39.3977318  19.7654311  12.2926570  40.7227507  20.1034607  12.1880052
  39.9900932  20.1059102  11.9079910  35.5202475  22.1679722   4.3723539
  36.2223054  21.6531711   4.4296296  35.4399958  22.4953874   5.1770414
  35.6126235  22.1393949   4.4996332  36.5681381  12.4055309  13.5003954
  36.7401885  12.2961204  14.3489236  37.1050739  13.0509715  13.2635147
  36.6726385  12.4847311  13.5909051  34.8453250  18.3586074   3.8809147
  35.6842149  18.5909007   3.9282909  34.8765019  17.4890386   3.8116183
  34.9734968  18.2643021   3.8773792  35.4705953  18.7786950   8.1822453
  36.0104178  18.6358081   8.8525825  34.7875899  19.1783700   8.5506479
  35.4498107  18.8166620   8.3356875  42.5056083  20.3259560  15.4513031
  43.2896499  20.4390408  15.8168773  42.3052677  19.5000697  15.6471716
  42.5922108  20.2206280  15.5347417  30.8743098  14.9987240   8.3356874
  30.6081513  14.1826357   8.4947865  30.8881662  15.0440396   7.4652390
  30.8367820  14.8844145   8.2310356  35.6241704   8.5365619  10.9823882
  34.9313501   8.0662598  11.2284614  36.2402032   8.3103923  11.5565589
  35.6126234   8.4332750  11.1033035  42.6626476  22.2369662   9.0979486
  41.8641722  21.9969162   9.3553355  43.1112487  22.2884055   9.8446534
  42.6101087  22.2092053   9.2464410  31.2836512  15.7846020   5.6168619
  31.1012085  15.7592906   4.7640911  32.0186181  16.2544958   5.6557527
  31.3650576  15.8507382   5.4966537  34.3482263  12.5031023  12.1250727
  35.0722236  12.4884053  12.6115622  34.4498400  13.2126378  11.6272696
  34.4700472  12.6055726  12.1229514  41.7227213  15.9830107  16.9899674
  40.9300194  16.2973619  17.1752294  41.8376140  16.1981576  16.1520459
  41.6222623  16.0613944  16.8938009  42.6511006  15.8850311  11.9284971
  43.2249867  15.2477555  12.0833535  42.5725809  15.8854393  11.0594629
  42.7244240  15.7915422  11.8231382  31.2507422  12.6639520   5.7667685
  31.8280925  12.5275971   6.4059931  30.5521484  12.2075305   6.0213270
  31.2328443  12.5761787   5.8989975  38.0074724  14.3173576   3.9806169
  37.7493969  13.4845311   3.9537468  38.0623207  14.5431189   3.1398669
  37.9774502  14.2271347   3.8526305  36.9809436  11.8711339   4.4671063
  36.4059028  12.0303507   5.1035024  36.6045113  11.2346748   4.0039514
  36.8412249  11.8009151   4.4925622  40.6482725  10.3434688   9.3263442
  40.2597158   9.9188906   8.6715633  39.9837423  10.5916837   9.8340468
  40.4929653  10.3173409   9.3051310  26.7266255  11.5151413   2.4815504
  26.8126507  11.1383282   3.2629034  27.3542053  11.1411859   2.0035462
  26.8322806  11.4036895   2.5260981  47.9731153  17.2559289  11.9369824
  47.7369791  16.4247353  11.8181885  48.6174382  17.2044896  12.5224669
  48.0325824  17.1256976  12.0055718  37.6229572  18.0454810   2.6512561
  38.2603518  17.8066557   3.1964354  38.0484643  18.2491969   1.9165721
  37.7805738  18.0405820   2.6229718  32.3142214  20.2843146   6.5346865
  32.3546359  20.5557997   5.7066644  32.8736738  20.8085054   6.9504652
  32.4025560  20.4018901   6.4738753  38.4300927   6.5463515  16.7050034
  38.1154368   7.3163078  16.4419597  38.1090860   5.9833771  16.1202261
  38.3359846   6.5773784  16.5791384  40.0051044  18.5227232   4.3306347
  40.0790052  18.3602404   5.1848197  40.8220550  18.7117422   4.0866829
  40.1367402  18.5263975   4.4204373  33.7656800  18.8685095   1.3600791
  32.9394918  19.1146832   1.2335069  33.8268791  18.7897176   2.2262849
  33.6530967  18.8930044   1.4689735  39.1350374  16.2879721  10.1472951
  38.6362068  16.9995489  10.2257839  39.9450599  16.6080388  10.1091113
  39.1806481  16.4406570  10.1529519  36.4861545  23.4629358   2.1279970
  36.2661840  23.1726713   2.9206637  36.2656067  22.8044313   1.5997882
  36.4209139  23.3229066   2.1668879  35.3978492  15.5502674   4.3935672
  35.1091741  14.9240146   4.9281399  36.2661840  15.4922962   4.4600352
  35.4838744  15.4490219   4.4826626  35.6010765  17.1897926   0.3178037
  36.3556733  17.5710965   0.5313499  35.0081378  17.6409069   0.7724733
  35.6247479  17.3126753   0.4160915  38.0617432   9.1460766  15.4435249
  37.2517208   9.4518546  15.3325091  38.5392119   9.8666348  15.5587833
  38.0120911   9.2975367  15.4442320  36.9208992  18.3606487   5.6918152
  36.3989745  18.5006779   6.3770017  37.3083012  17.6017151   5.8820270
  36.9012693  18.2692011   5.8219229  34.3961464  14.6823316  10.3134651
  34.9082561  14.9607569   9.6643411  34.1097807  15.4212610  10.6797465
  34.4296327  14.8325670  10.2724530  37.9145190   6.7749705  10.3735693
  37.7228387   6.7904839  11.2235117  38.7643786   6.9713379  10.3502348
  38.0120912   6.8064056  10.4958988  32.2992103   9.3040686   8.3519510
  32.1577595   8.4524627   8.4764018  32.5832666   9.3469347   7.5281716
  32.3199949   9.1840436   8.2487134  44.6856829  14.1487511  12.5373161
  44.6804868  13.2767328  12.5415587  45.3917823  14.3475680  12.0642616
  44.7901833  14.0491385  12.4680196  38.4127722  13.8764495  11.9086981
  38.5571098  14.4565703  11.2730091  38.7603371  14.2540792  12.6136836
  38.4855184  14.0185199  11.9185976  40.5847640  13.0754663   9.6912113
  39.8370954  13.2685678   9.2860391  40.7389165  12.2499883   9.4536234
  40.4970067  12.9819775   9.5957518  37.4855477  22.0667267   8.7748008
  37.6345041  21.5070183   8.1221412  38.2655479  22.1459269   9.1580527
  37.6229571  21.9952832   8.7344957  40.0108778  22.2381910  10.0532499
  39.9352449  21.5690720  10.6083287  39.9398637  22.9399698  10.5673165
  39.9889385  22.2426817  10.2109347  40.8249417   6.9705214  10.5807516
  41.2822031   7.7029188  10.7080308  40.9005746   6.5471679  11.3394772
  40.9040387   7.0162452  10.7108593  33.0682408   7.2171034  11.6696960
  32.5324597   6.6051392  11.9857727  33.1300173   7.7919170  12.3230627
  32.9978041   7.2117962  11.8132387  38.7031795   8.9607318   7.4249340
  37.9127869   8.7798778   7.7466676  39.0992417   8.1834271   7.4079635
  38.6448671   8.8194779   7.4701889  41.2169625  11.4367577  11.9072839
  41.1528766  12.2977534  11.7792976  41.3566813  11.1199570  11.1068390
  41.2285095  11.5167744  11.7701052  39.8988719  14.1299717   6.0489042
  39.4750968  14.3304216   5.3128060  39.7233574  13.2828565   6.1613342
  39.8099599  14.0348498   5.9562732  39.4000412  25.6450230   8.5110499
  39.8896343  24.9461019   8.3286164  38.8284645  25.3474100   9.0986557
  39.3884942  25.4976453   8.5711540  35.1871164  14.6251768   1.4817015
  35.3435783  14.5598571   2.3373007  35.5271757  15.4000321   1.2695694
  35.2604399  14.7300966   1.5771609  45.5967416  18.2112299  17.4637290
  46.4102281  17.9397448  17.6242423  45.4362382  17.9119839  16.6597486
  45.6937364  18.1267225  17.3682696  31.7605425  11.8086718   1.7977782
  32.1404390  12.2271263   1.1338049  31.1860790  12.3900174   2.1046625
  31.7316750  11.9564577   1.7454523  45.0378666  10.5035021  11.3415985
  44.2255348  10.1960912  11.4229158  45.4968600  10.0234021  11.9058698
  44.9859051  10.3871514  11.4370580  42.1332173  11.9095093  16.1244688
  42.6031804  12.5337209  16.5112562  42.1794053  11.2412068  16.6837902
  42.2100049  11.9029773  16.2644759  45.6088660  19.2718589  12.7360131
  46.2468380  18.7778785  12.4022587  44.9662751  19.1995990  12.1512357
  45.6082886  19.1877598  12.6002486  40.8266737   6.2283260  13.2423016
  41.6540166   5.9568409  13.2981630  40.8474583   7.0244102  13.5986834
  40.9519587   6.3063015  13.3038198  45.6642916  19.9638397   9.3765487
  46.4535295  19.6127462   9.4967569  45.8386514  20.7774786   9.1142121
  45.8063198  20.0324255   9.3553355  35.4036227  13.3747123   6.4293276
  34.5624233  13.2750997   6.6372170  35.6126235  14.1442603   6.7807597
  35.3100919  13.4739167   6.5120591  32.8811794  10.9966660   4.2578027
  32.4868492  11.0709672   3.4828136  32.3251911  11.3824607   4.8086389
  32.7414606  11.0648435   4.2245687  39.2152892  11.3028522   5.6790874
  38.9116029  10.7484511   6.2801281  38.5132312  11.4820732   5.1918908
  39.0669102  11.2473305   5.6960579  37.2771243  18.5178243  10.3862971
  37.1691598  18.5280305  11.2525030  37.4867024  19.3433024  10.1967925
  37.2921354  18.6419318  10.4867063  35.2945035  15.7690886   7.8484909
  34.7032968  16.4100384   7.8187924  36.0566058  16.1928503   7.8216209
  35.3193295  15.9266724   7.8400056  35.6905657   6.9292883   8.5152927
  36.1507139   7.0031813   9.2528050  35.7361764   7.7274137   8.1652748
  35.7656213   7.0587030   8.5725683  37.3389007   7.5959578  13.0824954
  36.9474572   6.9492925  13.5180732  37.5074870   8.1871013  13.7019209
  37.3059918   7.5873846  13.2387660  45.0534551  21.2200197   5.2816934
  44.8554240  21.7091012   4.5873145  44.4322262  21.4241439   5.8601067
  44.9322115  21.3216735   5.2640157  32.4793435  10.5582074  10.8904643
  33.3419048  10.4577783  10.8041973  32.1485218   9.9776783  10.3290215
  32.5578632  10.4573701  10.7950049  46.9708353  14.7864349  10.8162182
  47.6942552  14.3336876  10.6373202  46.7058315  15.0669015  10.0334510
  47.0389626  14.7615318  10.6740897  35.8395221   9.3824523   7.5515061
  35.2148291   9.3942915   6.9441014  35.5040816   9.8584698   8.2006301
  35.6980713   9.4543040   7.5571630  32.5520897  17.4424983   8.9918825
  32.0220821  16.7517422   9.0413800  32.8245990  17.4335168   8.1631534
  32.5145619  17.3392115   8.8766241  42.7527142  14.8848228   8.9657197
  42.1384135  14.3406278   9.2605832  43.2694427  14.3712464   8.4863013
  42.7382805  14.7284637   8.9381425  41.9923440  15.9552498   6.7001496
  41.5651048  15.3302216   6.2666931  41.9848384  15.6727420   7.5260503
  41.9282581  15.8205278   6.7581323  35.1085967  10.9917671   9.7689930
  35.2679453  10.2360995  10.1741652  34.9278860  11.5408610  10.4230667
  35.1051326  10.9611484   9.9252636  27.8316739  14.1152747   6.3487174
  27.7260188  14.0699592   5.4839258  27.0816959  14.4606528   6.6301459
  27.7052342  14.1593655   6.2624503  36.6010471   5.5592070   6.2949774
  36.6408843   6.0601277   7.0084481  35.7760136   5.6502464   6.0255697
  36.4849997   5.6473887   6.3600312  38.7840084  15.1252810  14.3970068
  37.9335715  15.2624525  14.5327713  38.9468212  14.3916589  14.8417770
  38.6823948  15.0366912  14.4825668  38.0224835  12.0752580   8.5923673
  37.1916765  12.2426398   8.3858921  37.9676352  11.6988531   9.3772558
  37.8914250  12.0442312   8.6772201  35.8308618   5.5661473  14.2280084
  36.4561321   5.0223606  14.5009516  35.3759098   5.0856391  13.6587874
  35.8556879   5.4150955  14.1841677  41.2337057  18.1708133   9.9450626
  40.7262148  18.7243979  10.3891256  40.9363703  18.2316422   9.1269400
  41.1141942  18.2614444   9.8899082  40.4779542  23.1032691   6.8507632
  40.2545196  22.3451520   7.2191659  39.9889385  23.1330712   6.1288072
  40.3722991  22.9954915   6.7984373  42.5350531  17.2714423  14.4019566
  42.4946386  16.6264100  13.8164722  43.3473850  17.2151040  14.7144978
  42.6493685  17.1673390  14.3616515  39.1257999  23.3233149   4.3044717
  38.7118398  22.6607279   3.9148559  39.8105373  23.4711008   3.7840411
  39.1656371  23.2473807   4.1701214  42.4923293  22.4823234   5.0568334
  42.0939576  22.5925505   4.2889154  41.8774513  22.6905301   5.6394893
  42.3422182  22.5296802   5.0299633  38.2228240  10.9011360  10.9569324
  37.7107143  10.2932543  11.3154355  38.0507736  11.6167952  11.4243300
  38.1217877  10.9174659  11.0785547  33.0693955   9.3448935  13.6071686
  32.8996545  10.0050310  13.0619892  32.6259905   9.5555496  14.3284175
  32.9793288   9.4734917  13.6333315  42.0997310   8.8235604  13.3971579
  42.6568741   8.5949414  12.7650045  41.7758375   9.5841270  13.1206792
  42.1343721   8.9019441  13.2628076  29.9696019  12.2495800   8.8660175
  29.4222739  11.5796446   8.9841044  30.7588397  11.8825648   8.9303643
  30.0048203  12.0960787   8.8928876  39.8180428  11.9103258  14.3623586
  40.5691755  12.2254934  14.6763141  40.0103004  11.7082428  13.5357508
  39.9571842  11.9270639  14.2866982  28.7282989  11.4616608   6.0206198
  28.5504750  11.0093217   6.7461114  28.4402011  12.2642770   6.2044676
  28.6595942  11.5139166   6.1549701  30.4655459  13.9944332   3.1327958
  29.6000978  13.9830022   3.0210729  30.5654275  13.8074555   3.9799097
  30.3529626  13.9650393   3.2416902  36.0912469  23.7642231   6.7058063
  36.4059027  24.5778619   6.7135845  36.5005882  23.3792449   7.3740222
  36.1980567  23.8270933   6.8062155  43.0436988  19.1812277   4.2761875
  43.5148166  19.8952540   4.4451860  43.3797167  18.5811028   4.8121745
  43.1632103  19.1983742   4.3794251  45.1313973  20.7913591  16.4553947
  45.2410938  20.0022151  16.8110694  45.4604869  20.7019527  15.6528285
  45.1966379  20.6619444  16.3896338  43.6810935  18.9730212  11.0389568
  43.1331880  18.3488095  10.7709633  44.1423963  19.1624484  10.3233647
  43.6678144  18.9089262  10.8939999  33.4325489  17.7115339   6.3536671
  34.0370346  17.6711173   5.7250492  33.2252801  18.5586491   6.3840727
  33.4914386  17.8303342   6.2652788  43.2469261  19.9781284   7.5698909
  44.0667635  19.8344250   7.8315204  42.9663338  20.6027483   8.1115347
  43.3266004  20.0491636   7.6886848  28.6676771  16.6949957   6.2235595
  28.5701049  15.8846228   6.5325651  29.4505641  16.6741750   5.8381863
  28.7692907  16.5717047   6.2122458  44.3763624  24.4608914   5.8431361
  43.7568655  23.8701561   5.6741376  44.2747487  25.0520349   5.2095684
  44.2701299  24.4612997   5.7236351  44.1032757  28.0061196   8.0874930
  43.9791454  28.5923641   8.7224749  44.7551041  27.5121392   8.3887205
  44.1806406  28.0200000   8.2260859  47.5413965  27.9240617  13.5003954
  47.7134468  27.8146512  14.3489236  48.0783322  28.5695023  13.2635147
  47.6458969  28.0032619  13.5909051  41.8475682  30.5172548   8.3356874
  41.5814097  29.7011665   8.4947865  41.8614246  30.5625704   7.4652390
  41.8100404  30.4029453   8.2310356  46.5974288  24.0550927  10.9823882
  45.9046085  23.5847906  11.2284614  47.2134615  23.8289231  11.5565589
  46.5858818  23.9518058  11.1033035  45.3214847  28.0216331  12.1250727
  46.0454819  28.0069361  12.6115622  45.4230983  28.7311686  11.6272696
  45.4433056  28.1241034  12.1229514  42.2240006  28.1824828   5.7667685
  42.8013508  28.0461279   6.4059931  41.5254067  27.7260612   6.0213270
  42.2061027  28.0947095   5.8989975  45.3694048  30.2008624  10.3134651
  45.8815145  30.4792877   9.6643411  45.0830390  30.9397918  10.6797465
  45.4028911  30.3510978  10.2724530  43.2724686  24.8225994   8.3519510
  43.1310178  23.9709935   8.4764018  43.5565250  24.8654655   7.5281716
  43.2932532  24.7025744   8.2487134  44.0414992  22.7356342  11.6696960
  43.5057181  22.1236700  11.9857727  44.1032756  23.3104478  12.3230627
  43.9710624  22.7303270  11.8132387  46.6638241  22.4478191   8.5152927
  47.1239723  22.5217121   9.2528050  46.7094348  23.2459445   8.1652748
  46.7388796  22.5772338   8.5725683  48.3121591  23.1144886  13.0824954
  47.9207156  22.4678233  13.5180732  48.4807454  23.7056321  13.7019209
  48.2792501  23.1059154  13.2387660  43.4526019  26.0767382  10.8904643
  44.3151632  25.9763091  10.8041973  43.1217802  25.4962091  10.3290215
  43.5311215  25.9759009  10.7950049  46.8127805  24.9009831   7.5515061
  46.1880875  24.9128223   6.9441014  46.4773400  25.3770006   8.2006301
  46.6713297  24.9728348   7.5571630  43.5253480  32.9610291   8.9918825
  42.9953405  32.2702730   9.0413800  43.7978574  32.9520476   8.1631534
  43.4878203  32.8577423   8.8766241  46.0818550  26.5102979   9.7689930
  46.2412037  25.7546303  10.1741652  45.9011444  27.0593918  10.4230667
  46.0783909  26.4796792   9.9252636  38.8049323  29.6338055   6.3487174
  38.6992772  29.5884899   5.4839258  38.0549543  29.9791836   6.6301459
  38.6784926  29.6778963   6.2624503  47.5743055  21.0777378   6.2949774
  47.6141427  21.5786585   7.0084481  46.7492720  21.1687772   6.0255697
  47.4582581  21.1659195   6.3600312  46.8041202  21.0846781  14.2280084
  47.4293905  20.5408914  14.5009516  46.3491682  20.6041699  13.6587874
  46.8289462  20.9336262  14.1841677  44.0426538  24.8634243  13.6071686
  43.8729129  25.5235618  13.0619892  43.5992488  25.0740804  14.3284175
  43.9525872  24.9920225  13.6333315  40.9428603  27.7681108   8.8660175
  40.3955322  27.0981754   8.9841044  41.7320981  27.4010956   8.9303643
  40.9780787  27.6146095   8.8928876  39.7015572  26.9801916   6.0206198
  39.5237333  26.5278525   6.7461114  39.4134594  27.7828078   6.2044676
  39.6328526  27.0324474   6.1549701   0.8270334  28.4936515  33.1851730
   0.7594834  28.5132474  32.3154316   0.8125996  29.3366842  33.4107400
   0.8149090  28.6210250  33.0904207   5.8483879  42.4485913  26.3927052
   5.8177883  43.3030550  26.5645321   6.4465227  42.1481206  26.9513196
   5.9321037  42.5302410  26.5001854   2.9835758  32.3726152  28.3619976
   2.6689199  33.0629631  28.7940399   2.4662700  32.3170935  27.6605477
   2.8600229  32.4661041  28.3216925   7.2750203  40.5947359  33.6440853
   6.4378624  40.6649546  33.8788447   7.2438434  40.5971853  32.7715155
   7.1468486  40.6057586  33.5500401   4.9558043  35.6590140  32.2284575
   5.5983951  35.7288245  32.8146490   5.2081064  34.9919363  31.7264117
   5.0880175  35.5716489  32.2411854   7.3939545  40.4334777  27.9596539
   7.1376110  39.6214719  27.7694421   8.2368859  40.4412345  27.7326726
   7.4805571  40.3146775  27.8981356   1.5742638  34.3734401  32.6972693
   1.9553149  33.6912573  33.0840567   0.7705922  34.0844004  32.5148357
   1.5119099  34.2301450  32.7276749  11.8002917  44.0121823  33.1851730
  11.7327418  44.0317782  32.3154316  11.7858580  44.8552150  33.4107400
  11.7881674  44.1395558  33.0904207   2.2099264  35.4156981  36.5092819
   2.9552856  35.2266791  36.0956245   1.7936568  35.9415219  35.9506676
   2.2584238  35.4659126  36.3657393   9.5861535  42.7866209  31.4598324
  10.1369456  42.1534278  31.6995416   9.5705650  43.3181602  32.1513829
   9.6646731  42.7715157  31.5977183   3.2889941  41.0262543  30.5702920
   2.9454707  40.3052878  30.9210170   3.3882983  40.8176394  29.7281279
   3.2531984  40.8886746  30.4974601   1.8080906  38.9454128  32.4462463
   0.9692007  38.9715406  32.2100727   1.8785274  39.5924863  33.0267810
   1.6949300  39.0450253  32.4971580   2.4010294  30.4820174  30.3086626
   2.5193862  30.9396638  29.5753929   2.2272469  29.6765435  30.0222844
   2.3929465  30.4313946  30.1587560   4.4379211  41.4532820  33.1611313
   4.0106819  41.3659169  32.4059413   3.8005264  41.5610596  33.7466157
   4.2808818  41.4565480  33.1356755   1.6210292  34.3073039  29.7967173
   1.8259885  34.2395347  30.6424170   1.2936716  35.1131860  29.7288350
   1.6025540  34.4158980  29.9126828   4.8743979  34.8604803  29.2769938
   4.2618293  35.3475206  29.6623670   4.9708154  34.1848294  29.8207589
   4.7981877  34.8323112  29.4148796   1.1337456  39.7872207  24.4432118
   0.6060475  39.8700951  23.7537827   1.5933164  40.5290078  24.4396762
   1.1239306  39.9092869  24.3406813   7.4695874  40.7339485  30.7442404
   7.2305644  40.6935319  29.9063188   7.6329775  41.5810637  30.8708125
   7.4586177  40.8531570  30.6395886   3.5326359  41.2961064  27.4781141
   2.8617549  41.8390766  27.3494207   4.2266110  41.7655919  27.2362836
   3.5355227  41.4459335  27.4236669   3.6954487  37.7516947  30.3871514
   4.0482097  37.3246670  31.0617313   2.8369288  37.6667791  30.5172591
   3.6203931  37.6761688  30.5066525   1.6937753  41.0152316  34.3356356
   1.6735680  40.8335611  35.1891135   1.7416953  41.8864334  34.3115940
   1.6972394  41.1168854  34.4579651   5.1278547  32.8735359  31.3155827
   4.6209412  32.1664499  31.2477004   5.9245981  32.5428548  31.4456903
   5.1705786  32.7208511  31.3254822   1.0442563  39.3801971  27.2129490
   0.8156256  39.4034673  26.3707849   1.3040639  38.5559438  27.3324501
   1.0488751  39.2618051  27.1054688   3.7699269  38.3701909  27.4632649
   3.7693495  38.2150565  28.3216925   3.5655449  39.2164896  27.4074034
   3.7399047  38.4722530  27.5820588   3.5938350  37.3740651  34.2826027
   3.0101339  37.8749857  33.8703594   3.9142644  36.8670207  33.6490350
   3.5551525  37.3732486  34.1284534   5.5434703  19.3864044  13.3267099
   5.5128707  20.2408681  13.4985368   6.1416051  19.0859337  13.8853242
   5.6271861  19.4680541  13.4341901   2.0528104  24.7426221  27.6880485
   2.7594871  24.2478252  27.8167420   2.2416039  25.1835302  26.9583143
   2.1856010  24.7344571  27.5989531   1.5886209  20.5331739  20.7251681
   2.1342169  21.2116826  20.7845651   1.5303085  20.3919200  19.8653262
   1.6602123  20.6123741  20.6063741   3.3651277  21.9616346  11.5985409
   3.2490803  22.7124032  12.0277547   4.1607164  21.7040299  11.8481496
   3.4655867  22.0351193  11.6989500   1.0880583  22.6923990   9.9099699
   1.0031878  23.5484957  10.0549267   1.5764966  22.4168315  10.5781858
   1.1469480  22.7781312  10.0301780   2.6786582   9.3104284  15.2960023
   2.3640023  10.0007762  15.7280445   2.1613524   9.2549066  14.5945524
   2.5551053   9.4039172  15.2556972   2.0199016  19.3108785  11.4097434
   1.4910487  19.5268418  12.0694740   2.5424036  20.0044923  11.3298403
   2.0187469  19.4451922  11.4953033   7.4747069  24.8855089  16.7830478
   6.6444772  25.0965733  16.9463895   7.4256321  24.0592144  16.5072762
   7.3453804  24.7944695  16.7667844   6.9701027  17.5325490  20.5780899
   6.1329448  17.6027677  20.8128494   6.9389258  17.5349985  19.7055202
   6.8419310  17.5435717  20.4840447   1.6931213  21.7281166  16.1692791
   2.4488728  22.1612681  16.2081700   1.7993537  21.0785936  16.7427427
   1.8201384  21.6958650  16.2590817   4.7311384  25.5554444  16.9195194
   4.2946616  25.5591186  17.6754165   4.3974300  26.2359942  16.4874771
   4.6174004  25.6566899  16.9676026   4.6508867  12.5968271  19.1624622
   5.2934775  12.6666376  19.7486537   4.9031888  11.9297494  18.6604164
   4.7830999  12.5094620  19.1751901   7.8655730  22.2735363  15.8114831
   8.5272164  21.7126032  15.7110740   7.2247142  21.7787394  16.1367522
   7.8684598  22.1171772  15.8447171   4.1520561  23.2900746  15.5526820
   4.3876150  23.4345945  14.7253671   4.3010125  24.0543154  15.9458334
   4.2086364  23.4239800  15.4890424   5.9811018  22.1302412  13.3896424
   6.3119235  22.6630052  12.7836519   6.5544106  22.1841299  14.0458375
   6.1144697  22.2171981  13.3974205   1.1942907  19.9767314  14.0720004
   1.2889761  20.7156609  14.5259629   0.5701750  19.5484790  14.5054568
   1.1151937  20.0228635  14.2028151   1.4465928  21.8216054   7.3056956
   1.3646091  21.8918241   8.1711943   2.0845649  22.3845798   7.1140696
   1.5285765  21.9155025   7.4046905   7.0890369  17.3712909  14.8936585
   6.8326934  16.5592850  14.7034468   7.9319683  17.3790476  14.6666773
   7.1756395  17.2524906  14.8321402   1.2693462  11.3112533  19.6312740
   1.6503973  10.6290704  20.0180614   0.4656746  11.0222135  19.4488404
   1.2069923  11.1679581  19.6616795   4.7715528  24.5262505  24.7295138
   4.5354166  23.6950569  24.6107199   5.4158757  24.4748112  25.3149982
   4.8310199  24.3960193  24.7981032   5.7951949  24.3106953  20.7923432
   5.4897766  25.0435010  21.1536748   5.0758165  23.9044883  20.5116219
   5.6439291  24.3588686  20.8036570  11.4953741  20.9499954  20.1191777
  11.4278242  20.9695913  19.2494363  11.4809404  21.7930281  20.3447447
  11.4832498  21.0773689  20.0244254   1.9050088  12.3535112  23.4432866
   2.6503680  12.1644922  23.0296292   1.4887392  12.8793350  22.8846722
   1.9535062  12.4037257  23.2997439   9.2812359  19.7244340  18.3938371
   9.8320280  19.0912409  18.6335463   9.2656474  20.2559733  19.0853875
   9.3597555  19.7093288  18.5317229   2.9840765  17.9640674  17.5042967
   2.6405531  17.2431009  17.8550217   3.0833807  17.7554525  16.6621326
   2.9482808  17.8264877  17.4314647   3.4453794  24.4266378  13.0466955
   4.0111827  25.0859588  12.9625498   2.7981697  24.7716076  13.5183358
   3.4332550  24.5748319  13.1039712   1.5031730  15.8832259  19.3802510
   0.6642831  15.9093538  19.1440773   1.5736098  16.5302994  19.9607857
   1.3900124  15.9828385  19.4311627   5.3789254  21.0900245  16.6663752
   5.2923229  21.2455672  17.5198531   4.9239734  21.7338321  16.2923157
   5.2992511  21.2076001  16.7370859   3.1463119  25.1194352  19.0776093
   3.0077478  25.8175398  19.5824835   2.3663117  24.9643008  18.7212274
   3.0106346  25.1994519  19.1002367   1.4841204  21.4190727  25.3298474
   1.4789243  20.5470544  25.3340901   2.1902198  21.6178896  24.8567930
   1.5886208  21.3194601  25.2605510   4.6416492  24.4772606   9.8392592
   4.2623301  23.6909744   9.8321881   3.9782737  25.0259463   9.6964236
   4.4874967  24.4417430   9.8173389   2.0961118   7.4198305  17.2426673
   2.2144686   7.8774769  16.5093976   1.9223293   6.6143567  16.9562890
   2.0880289   7.3692078  17.0927606   2.8876591  26.7218097  10.1744278
   2.9696428  27.5285083   9.8505729   3.3726333  26.7414056  10.8985051
   2.9713748  26.8438759  10.2331176   2.3951791  25.4815515  30.2562604
   3.2086656  25.2100664  30.4167736   2.2346757  25.1823055  29.4522800
   2.4921739  25.3970441  30.1608010   1.0828621  29.0867920  14.6412213
   0.6908412  28.7834636  13.9235079   1.2381693  29.9237010  14.4517167
   1.0482211  29.1651757  14.5068710   1.8363041  17.7738237  24.1341299
   1.0239723  17.4664128  24.2154472   2.2952975  17.2937237  24.6984011
   1.7843426  17.6574730  24.2295893   1.2468296  25.6517909  14.5818243
   0.8882950  25.8232552  15.3582276   0.7607006  26.1131115  14.0246242
   1.1226992  25.7456880  14.6143512   2.4073035  26.5421805  25.5285444
   3.0452755  26.0482001  25.1947900   1.7647126  26.4699206  24.9437671
   2.4067261  26.4580814  25.3927799   4.1330035  18.3910951  20.0951360
   3.7057643  18.3037300  19.3399459   3.4956088  18.4988727  20.6806204
   3.9759642  18.3943611  20.0696801   2.4627291  27.2341614  22.1690801
   3.2519670  26.8830678  22.2892883   2.6370889  28.0478002  21.9067435
   2.6047573  27.3027471  22.1478669   1.3161116  11.2451170  16.7307219
   1.5210709  11.1773478  17.5764217   0.9887540  12.0509991  16.6628397
   1.2976364  11.3537111  16.8466875   4.5694803  11.7982935  16.2109985
   3.9569117  12.2853337  16.5963717   4.6658978  11.1226425  16.7547636
   4.4932701  11.7701243  16.3488843   8.2119831  22.8699871  21.6387501
   8.2702955  23.3186520  22.3847477   7.5786299  23.2798684  21.2017581
   8.1271126  22.9973606  21.6840049   1.8518926  28.4903413  18.0742247
   1.6538615  28.9794228  17.3798459   1.2306637  28.6944655  18.6526381
   1.7306490  28.5919951  18.0565470   5.1641511  20.8916159  19.7253191
   4.9239734  20.0522574  19.7295618   5.6433518  20.9716326  20.4493965
   5.1993694  20.7797559  19.8327994   7.1646698  17.6717616  17.6782450
   6.9256468  17.6313450  16.8403235   7.3280599  18.5188768  17.8048172
   7.1537001  17.7909701  17.5735932   3.7692728  22.0567565  23.6087496
   4.4926927  21.6040092  23.4298515   3.5042690  22.3372231  22.8259823
   3.8374001  22.0318534  23.4666211   6.2028042  21.0193976  22.1118045
   6.7945882  21.6591227  22.1436243   6.6387036  20.3217013  22.4010112
   6.3546473  21.0112327  22.1598878   3.2277183  18.2339195  14.4121188
   2.5568373  18.7768897  14.2834253   3.9216934  18.7034050  14.1702883
   3.2306051  18.3837466  14.3576716   3.3905311  14.6895079  17.3211561
   3.7432921  14.2624801  17.9957360   2.5320112  14.6045922  17.4512637
   3.3154755  14.6139819  17.4406571   1.3888577  17.9530447  21.2696403
   1.3686504  17.7713742  22.1231182   1.4367777  18.8242466  21.2455987
   1.3923218  18.0546985  21.3919698   4.8229371   9.8113490  18.2495874
   4.3160235   9.1042630  18.1817051   5.6196805   9.4806679  18.3796950
   4.8656610   9.6586642  18.2594868   0.7393387  16.3180103  14.1469537
   0.5107080  16.3412804  13.3047895   0.9991463  15.4937570  14.2664548
   0.7439575  16.1996183  14.0394735   7.0249511  24.3278417  11.2336738
   7.4083117  25.0769773  11.4634835   6.2293624  24.5744237  10.9748727
   6.9643293  24.4748111  11.2294311   3.4650093  15.3080040  14.3972696
   3.4644319  15.1528697  15.2556972   3.2606273  16.1543027  14.3414081
   3.4349871  15.4100661  14.5160635   1.1890945  19.9877542  18.0508902
   1.6844610  19.2700537  18.0112923   0.3790721  19.6848339  17.9363389
   1.1434838  19.8375188  18.0282628   3.2542764  22.7381229  20.7386031
   3.6797835  22.2155651  20.1856456   2.8899684  23.3362067  20.2174654
   3.2629366  22.7491456  20.5795041   1.9298348  28.0616807  29.2479261
   2.0395313  27.2725367  29.6036008   2.2589244  27.9722743  28.4453599
   1.9950754  27.9322660  29.1821651   3.2889174  14.3118782  21.2166074
   2.7052163  14.8127989  20.8043641   3.6093468  13.8048338  20.5830397
   3.2502349  14.3110617  21.0624581  16.5167286  34.9049352  13.3267099
  16.4861291  35.7593989  13.4985368  17.1148635  34.6044645  13.8853242
  16.6004444  34.9865849  13.4341901   9.7166971  33.9925003  18.0820029
   8.8604867  34.1533501  18.1329146   9.7634625  33.1217067  18.1025090
   9.5966083  33.8875805  18.0926095  13.0260688  40.2611529  27.6880485
  13.7327455  39.7663559  27.8167420  13.2148623  40.7020610  26.9583143
  13.1588593  40.2529879  27.5989531  12.5618792  36.0517047  20.7251681
  13.1074752  36.7302134  20.7845651  12.5035668  35.9104508  19.8653262
  12.6334706  36.1309049  20.6063741  14.3383861  37.4801654  11.5985409
  14.2223387  38.2309340  12.0277547  15.1339747  37.2225607  11.8481496
  14.4388450  37.5536501  11.6989500   1.1747999  31.7312130  18.6356675
   0.5553030  31.1404778  18.4666689   1.0731862  32.3223565  18.0020998
   1.0685674  31.7316213  18.5161664   6.2214186  41.4695677  12.8854751
   6.5430027  42.0100884  12.2816059   6.8686283  40.8992448  13.0177041
   6.3640241  41.4654852  12.8161786   8.2715894  33.4711672  12.9689138
   8.9696059  33.6499800  13.4610601   8.5868227  32.9482011  12.3459527
   8.4211232  33.4205444  12.9491148   0.9017132  35.2764412  20.8800244
   0.7775829  35.8626857  21.5150063   1.5535416  34.7824608  21.1812519
   0.9790781  35.2903216  21.0186173   8.4603830  39.8582117  12.9568929
   8.8997465  39.2499218  13.4023702   8.3108493  39.4789490  12.1854394
   8.5025295  39.7120588  12.9088097   5.9275473  38.4526129  20.1587755
   6.5724475  37.9598572  19.8398703   6.1677250  38.5950916  20.9853833
   6.0586058  38.4003571  20.2337288   8.4661564  41.2981035  19.8094647
   8.7484807  40.5032441  19.5881403   9.1947724  41.7761622  19.8299708
   8.6151128  41.2515632  19.7797663   6.4442758  28.8404069  17.0510412
   6.1146088  29.2915212  16.3814111   5.7687760  28.7620232  17.5983419
   6.2953194  28.8955204  17.0333636  12.0613166  38.2109298   9.9099699
  11.9764461  39.0670265  10.0549267  12.5497549  37.9353622  10.5781858
  12.1202064  38.2966620  10.0301780  12.9931599  34.8294093  11.4097434
  12.4643071  35.0453726  12.0694740  13.5156619  35.5230231  11.3298403
  12.9920052  34.9637229  11.4953033  18.4479652  40.4040397  16.7830478
  17.6177356  40.6151041  16.9463895  18.3988905  39.5777452  16.5072762
  18.3186388  40.3130003  16.7667844   6.5089390  43.2344251  19.6178388
   5.9916332  42.8751666  19.0139696   7.2063781  42.7106426  19.6284454
   6.5354971  43.1041939  19.5308646  10.1652982  43.6839065  25.5794561
  10.2536328  43.4965206  26.4272771  10.5942694  43.0376495  25.1799407
  10.2415084  43.5602073  25.6466312   7.7323442  42.9670225  24.5612223
   7.1694277  42.5542835  25.0851884   8.4944465  42.8923131  24.9805366
   7.7617890  42.8947626  24.7005223   9.3408422  34.9722961   8.6873822
   9.5804425  35.1800945   7.8749165   9.6624263  34.1680470   8.7962767
   9.4245580  34.8837063   8.5834375   4.6498712  26.9016357  12.5333360
   5.4044680  27.2694674  12.2950410   4.4726247  27.2755912  13.3012540
   4.7353190  27.0114545  12.6118249   4.3398340  35.1943833  26.2929268
   4.5118843  35.0849728  27.1414550   4.8767697  35.8398239  26.0560460
   4.4443344  35.2735835  26.3834365   3.0055777  29.3086676   9.2311473
   2.8231350  29.5258557   8.4052466   3.8681390  29.4225689   9.2870088
   3.1060366  29.3576574   9.1165960   2.6170209  41.1474598  16.6734461
   3.4559108  41.3797531  16.7208223   2.6481978  40.2778910  16.6041496
   2.7451926  41.0531545  16.6699106   3.2422912  41.5675474  20.9747767
   3.7821137  41.4246605  21.6451139   2.5592858  41.9672224  21.3431793
   3.2215066  41.6055144  21.1282188   8.6855496  26.3113087  12.2660497
   9.4141656  26.1329042  11.8198653   8.7750389  27.1531167  12.4767675
   8.8062158  26.4096965  12.2314015  12.6663797  37.2466474  16.1692791
  13.4221312  37.6797989  16.2081700  12.7726121  36.5971244  16.7427427
  12.7933967  37.2143958  16.2590817  15.7043968  41.0739751  16.9195194
  15.2679199  41.0776494  17.6754165  15.3706883  41.7545250  16.4874771
  15.5906588  41.1752207  16.9676026  10.2773041  43.1148084  28.2438344
  11.0613458  43.2278932  28.6094086  10.0769636  42.2889221  28.4397030
  10.3639067  43.0094804  28.3272730   3.3958663  31.3254143  23.7749196
   2.7030460  30.8551122  24.0209927   4.0118990  31.0992447  24.3490903
   3.3843193  31.2221274  23.8958348  10.4343435  45.0258186  21.8904800
   9.6358680  44.7857686  22.1478668  10.8829446  45.0772579  22.6371847
  10.3818046  44.9980577  22.0389724  18.8388314  37.7920671  15.8114831
  19.5004748  37.2311340  15.7110740  18.1979726  37.2972702  16.1367522
  18.8417181  37.6357080  15.8447171   9.7265122  41.0890803   8.1195754
  10.1416270  40.7575827   7.4280250   8.8957051  40.8559705   7.9915891
   9.6653130  41.0062059   7.9986602  15.1253145  38.8086054  15.5526820
  15.3608734  38.9531253  14.7253671  15.2742708  39.5728462  15.9458334
  15.1818948  38.9425108  15.4890424   2.1199222  35.2919547  24.9176041
   2.8439194  35.2772577  25.4040936   2.2215359  36.0014902  24.4198009
   2.2417431  35.3944250  24.9154828  16.9543601  37.6487720  13.3896424
  17.2851818  38.1815360  12.7836519  17.5276689  37.7026607  14.0458375
  17.0877280  37.7357288  13.3974205   9.4944171  38.7718631  29.7824988
   8.7017152  39.0862143  29.9677608   9.6093099  38.9870100  28.9445773
   9.3939582  38.8502468  29.6863323  12.1675490  35.4952622  14.0720004
  12.2622345  36.2341916  14.5259629  11.5434334  35.0670098  14.5054568
  12.0884520  35.5413943  14.2028151  10.4227964  38.6738835  24.7210285
  10.9966826  38.0366079  24.8758849  10.3442768  38.6742917  23.8519942
  10.4961199  38.5803946  24.6156696  12.4198512  37.3401362   7.3056956
  12.3378674  37.4103549   8.1711943  13.0578232  37.9031106   7.1140696
  12.5018349  37.4340333   7.4046905   5.7791683  37.1062100  16.7731482
   5.5210927  36.2733835  16.7462782   5.8340166  37.3319713  15.9323983
   5.7491461  37.0159871  16.6451619   4.7526395  34.6599863  17.2596377
   4.1775986  34.8192031  17.8960338   4.3762071  34.0235272  16.7964827
   4.6129207  34.5897675  17.2850935   8.4199684  33.1323212  22.1188755
   8.0314116  32.7077430  21.4640947   7.7554382  33.3805361  22.6265782
   8.2646611  33.1061933  22.0976623   9.5238622  37.3621816  10.3165562
  10.3379261  37.6536709  10.2048334   9.4597763  36.7081679   9.7423855
   9.6341361  37.3087011  10.2154400  15.7448112  40.0447813  24.7295138
  15.5086749  39.2135877  24.6107199  16.3891341  39.9933420  25.3149982
  15.8042783  39.9145501  24.7981032   5.3946530  40.8343334  15.4437874
   6.0320477  40.5955081  15.9889668   5.8201602  41.0380493  14.7091035
   5.5522696  40.8294344  15.4155032   6.0349345  36.0545624   9.7812764
   6.4194498  35.8353330  10.5329309   5.7860966  36.8808569   9.9113840
   6.0551418  36.1443770   9.9113840   6.2017886  29.3352039  29.4975348
   5.8871327  30.1051602  29.2344911   5.8807818  28.7722295  28.9127575
   6.1076805  29.3662308  29.3716698  16.7684533  39.8292261  20.7923432
  16.4630350  40.5620318  21.1536748  16.0490748  39.4230191  20.5116219
  16.6171875  39.8773994  20.8036570   7.7768002  41.3115757  17.1231661
   7.8507010  41.1490928  17.9773511   8.5937508  41.5005946  16.8792142
   7.9084361  41.3152499  17.2129686  22.4686325  36.4685262  20.1191777
  22.4010825  36.4881221  19.2494363  22.4541987  37.3115589  20.3447447
  22.4565081  36.5958997  20.0244254   3.7549783  27.7242560  15.1121544
   2.8872208  27.7965160  15.1779154   4.0424987  28.5264639  15.3009519
   3.6689531  27.8536707  15.1496311  12.8782671  27.8720420  23.4432866
  13.6236263  27.6830230  23.0296292  12.4619976  28.3978658  22.8846722
  12.9267646  27.9222565  23.2997439   6.9067333  39.0768245  22.9398265
   6.4079027  39.7884013  23.0183153   7.7167557  39.3968912  22.9016427
   6.9523440  39.2295094  22.9454833   3.1695451  38.3391198  17.1860985
   2.8808699  37.7128670  17.7206713   4.0378799  38.2811486  17.2525666
   3.2555703  38.2378743  17.2751940  13.9573348  33.4825982  17.5042967
  13.6138114  32.7616317  17.8550217  14.0566391  33.2739833  16.6621326
  13.9215391  33.3450185  17.4314647   3.3727724  39.9786450  13.1103350
   4.1273692  40.3599489  13.3238813   2.7798337  40.4297593  13.5650047
   3.3964438  40.1015277  13.2086229  14.4186377  39.9451686  13.0466955
  14.9844410  40.6044896  12.9625498  13.7714281  40.2901384  13.5183358
  14.4065134  40.0933627  13.1039712   5.8334391  31.9349290  28.2360563
   5.0234167  32.2407070  28.1250405   6.3109078  32.6554872  28.3513147
   5.7837870  32.0863891  28.2367634   4.6925951  41.1495011  18.4843466
   4.1706704  41.2895303  19.1695331   5.0799971  40.3905675  18.6745583
   4.6729652  41.0580535  18.6144542   1.6817135  31.2000820  12.5538421
   1.3941930  30.8302090  11.8170368   2.3687603  31.6695675  12.2922125
   1.7406032  31.2147789  12.4053496  10.8892956  42.8890470  12.4704035
  10.6479631  42.1558331  12.0631100  11.0694288  43.4377327  11.8170368
  10.8800580  42.8612861  12.3134258   6.1192276  38.1799030  13.8824957
   5.9235059  38.7873764  13.2885260   6.3426622  37.4866974  13.4016631
   6.1226917  38.1676555  13.7241038   4.5170806  35.0653768  14.0005825
   5.2393458  35.2294926  13.5409631   4.0378799  35.7863433  13.8945165
   4.5534537  35.1951997  13.9171439   2.1678423  37.4711840  23.1059965
   2.6799520  37.7496094  22.4568725   1.8814766  38.2101134  23.4722778
   2.2013286  37.6214194  23.0649843  16.3521838  36.6085553  16.6663752
  16.2655812  36.7640979  17.5198531  15.8972318  37.2523629  16.2923157
  16.2725094  36.7261308  16.7370859   5.6862148  29.5638229  23.1661007
   5.4945345  29.5793363  24.0160430   6.5360744  29.7601903  23.1427662
   5.7837870  29.5952580  23.2884301  10.2247654  33.9296301  15.2889311
   9.9782368  33.8492051  16.1226100  10.5532777  33.1449768  15.0951839
  10.2368897  33.8022566  15.3836835  14.1195703  40.6379660  19.0776093
  13.9810062  41.3360706  19.5824835  13.3395700  40.4828316  18.7212274
  13.9838929  40.7179826  19.1002367  12.4573788  36.9376035  25.3298474
  12.4521826  36.0655852  25.3340901  13.1634782  37.1364204  24.8567930
  12.5618792  36.8379909  25.2605510   6.1844681  36.6653019  24.7012295
   6.3288057  37.2454227  24.0655405   6.5320330  37.0429316  25.4062149
   6.2572142  36.8073723  24.7111289   8.3564598  35.8643187  22.4837426
   7.6087912  36.0574202  22.0785704   8.5106124  35.0388407  22.2461547
   8.2687026  35.7708299  22.3882832  15.6149075  39.9957914   9.8392592
  15.2355884  39.2095052   9.8321881  14.9515321  40.5444771   9.6964236
  15.4607550  39.9602738   9.8173389   8.5966375  29.7593738  23.3732830
   9.0538989  30.4917713  23.5005622   8.6722704  29.3360203  24.1320086
   8.6757345  29.8050976  23.5033906   8.4395984  43.5471433  13.6781418
   9.2045875  43.2781076  13.3564082   8.3374073  43.0621443  14.3951481
   8.5377479  43.4360997  13.7361246   6.4748753  31.7495842  20.2174654
   5.6844828  31.5687302  20.5391990   6.8709376  30.9722795  20.2004948
   6.4165629  31.6083303  20.2627202  11.8592440  39.3838272  17.9434100
  11.1837441  39.1523505  18.4447487  11.8684816  38.7759455  17.3176205
  11.7610944  39.2597197  17.9250252   8.9886584  34.2256101  24.6998153
   8.9245725  35.0866058  24.5718290   9.1283771  33.9088094  23.8993704
   9.0002054  34.3056268  24.5626366  13.8609174  42.2403405  10.1744278
  13.9429012  43.0470391   9.8505729  14.3458916  42.2599364  10.8985051
  13.9446332  42.3624067  10.2331176   7.6705677  36.9188241  18.8414356
   7.2467927  37.1192740  18.1053374   7.4950533  36.0717089  18.9538656
   7.5816558  36.8237022  18.7488046   2.9588122  37.4140292  14.2742328
   3.1152742  37.3487095  15.1298320   3.2988716  38.1888845  14.0621008
   3.0321357  37.5189490  14.3696922   9.4967267  36.7898176  13.1435691
  10.0382812  36.2868557  13.6074312   9.8113826  36.7363370  12.3325177
   9.6231664  36.7077597  13.0919504  13.3684374  41.0000823  30.2562604
  14.1819240  40.7285972  30.4167736  13.2079341  40.7008363  29.4522800
  13.4654323  40.9155749  30.1608010   7.6653717  42.1815527  10.4275719
   7.7346537  41.3230066  10.5668720   8.4442172  42.3987408  10.0994744
   7.7906567  42.0868391  10.3992877  10.6456536  31.6834480  23.1957992
  10.8598506  31.0445394  22.6421346  10.0290436  32.1280304  22.7665854
  10.5861866  31.6544624  23.0508423  12.0561204  44.6053228  14.6412213
  11.6640996  44.3019944  13.9235079  12.2114277  45.4422318  14.4517167
  12.0214794  44.6837065  14.5068710  12.8095624  33.2923545  24.1341299
  11.9972306  32.9849436  24.2154472  13.2685559  32.8122545  24.6984011
  12.7576009  33.1760038  24.2295893  12.2200879  41.1703217  14.5818243
  11.8615534  41.3417860  15.3582276  11.7339590  41.6316423  14.0246242
  12.0959576  41.2642188  14.6143512  10.0371265  24.7934416  18.1845335
   9.1664823  24.7673137  18.1378644  10.2911606  24.6211608  17.3671180
   9.9464825  24.7644559  18.0565471   7.0089244  36.8502383   7.1218478
   7.2981769  37.6267265   7.3962052   7.0961043  36.3391114   7.8232977
   7.0643501  36.8894301   7.2660976   7.0620406  26.8040644  19.6418805
   6.5458894  26.1120836  19.7670384   6.5014334  27.4711421  19.5881404
   6.9026919  26.8003902  19.6524871   9.1312639  27.3433604  21.4711658
   8.7444392  27.3682636  22.2525188   8.6445576  26.7775283  21.0186174
   9.0025148  27.2629355  21.5199561  13.3805618  42.0607113  25.5285444
  14.0185339  41.5667309  25.1947900  12.7379710  41.9884514  24.9437671
  13.3799845  41.9766122  25.3927799   8.7969781  24.2300590  23.7621918
   9.4262899  24.7660890  23.4842988   8.9655643  24.1377949  24.6135483
   8.9147575  24.2961952  23.8470446   8.5983696  29.0171784  26.0348329
   9.4257125  28.7456933  26.0906944   8.6191542  29.8132626  26.3912147
   8.7236546  29.0951539  26.0963512  13.4359875  42.7526921  22.1690801
  14.2252253  42.4015986  22.2892883  13.6103473  43.5663310  21.9067435
  13.5780157  42.8212779  22.1478669   3.1753185  36.1635647  19.2218590
   2.3341192  36.0639521  19.4297484   3.3843193  36.9331128  19.5732910
   3.0817878  36.2627691  19.3045905   6.9869850  34.0917046  18.4716187
   6.6832988  33.5373035  19.0726595   6.2849271  34.2709256  17.9844222
   6.8386060  34.0361829  18.4885893   6.0435947  31.4017566  13.0360889
   6.3195682  30.6836479  12.6238457   6.6434617  32.0002486  12.8281995
   6.1729212  31.3837937  12.9441650   5.0488201  41.3066767  23.1788285
   4.9408556  41.3168829  24.0450343   5.2583983  42.1321548  22.9893239
   5.0638312  41.4307842  23.2792377   9.5446468  29.0731084  11.3107484
   9.9990214  29.2441644  12.0355329  10.0186514  28.4599194  10.9105260
   9.6814788  29.0081969  11.3581246   3.0661993  38.5579410  20.6410223
   2.4749927  39.1988908  20.6113238   3.8283017  38.9817027  20.6141522
   3.0910254  38.7155248  20.6325370   3.4622616  29.7181407  21.3078240
   3.9224098  29.7920337  22.0453364   3.5078723  30.5162661  20.9578062
   3.5373171  29.8475554  21.3650997   5.1105966  30.3848102  25.8750267
   4.7191531  29.7381449  26.3106045   5.2791829  30.9759537  26.4944523
   5.0776876  30.3762370  26.0312973  19.1852415  38.3885179  21.6387501
  19.2435539  38.8371828  22.3847477  18.5518882  38.7983992  21.2017581
  19.1003710  38.5158914  21.6840049  12.8251510  44.0088721  18.0742247
  12.6271198  44.4979536  17.3798459  12.2039221  44.2129963  18.6526381
  12.7039074  44.1105259  18.0565470   6.8859488  35.7773618  12.4152491
   7.6301533  36.1647894  12.6535441   7.0320184  34.9331043  12.5792979
   7.0170073  35.7104091  12.4746461   8.8039063  27.5723877  17.4484353
   7.9575108  27.7446685  17.3225703   8.8010196  26.7673221  17.7850181
   8.6786213  27.4784906  17.4795480   9.8737364  31.3499091  18.3146411
   9.3997318  30.8240853  18.8251722  10.2455500  30.8028564  17.7461272
   9.8587253  31.1915088  18.3061558  11.8020863  32.2435646  11.3772165
  11.2743882  32.3264390  10.6877873  12.2616572  32.9853517  11.3736809
  11.7922714  32.3656308  11.2746860  14.7425311  37.5752873  23.6087496
  15.4659510  37.1225400  23.4298515  14.4775274  37.8557539  22.8259823
  14.8106585  37.5503842  23.4666211   3.6112180  32.1713047  20.3440375
   2.9865250  32.1831439  19.7366327   3.2757775  32.6473222  20.9931615
   3.4697672  32.2431564  20.3496943  11.3557946  40.8139209  10.5081822
  12.0792145  41.2797322  10.3646395  10.9158537  40.8812819   9.7579419
  11.3973638  40.8923046  10.3766603  10.5244101  37.6736752  21.7582511
   9.9101094  37.1294802  22.0531146  11.0411386  37.1600988  21.2788327
  10.5099763  37.5173161  21.7306739   9.7640398  38.7441022  19.4926809
   9.3368006  38.1190740  19.0592245   9.7565343  38.4615944  20.3185816
   9.6999539  38.6093802  19.5506637   2.8802925  33.7806195  22.5615243
   3.0396412  33.0249519  22.9666965   2.6995819  34.3297134  23.2155981
   2.8768284  33.7500009  22.7177949  10.8223228  25.9467430  23.1166033
  10.3263790  26.1431105  22.4257599  11.5792290  26.3460099  22.9454834
  10.8610053  26.0345164  22.9886169   8.0926108  29.6209776  19.7069343
   8.1168595  29.0869889  19.0182123   8.3437581  29.1127085  20.3694934
   8.1336027  29.4670680  19.7033988   4.3727430  28.3480594  19.0875088
   4.4125802  28.8489801  19.8009795   3.5477095  28.4390988  18.8181011
   4.2566956  28.4362411  19.1525626   6.5557043  37.9141334  27.1895382
   5.7052673  38.0513049  27.3253027   6.7185171  37.1805113  27.6343084
   6.4540906  37.8255436  27.2750981   5.7941793  34.8641104  21.3848987
   4.9633723  35.0314922  21.1784235   5.7393311  34.4877055  22.1697872
   5.6631208  34.8330836  21.4697515   3.6025577  28.3549997  27.0205397
   4.2278280  27.8112130  27.2934830   3.1476057  27.8744915  26.4513188
   3.6273837  28.2039479  26.9766991   4.1677837  33.1396696  11.9139104
   4.3080798  33.6369160  12.6167746   4.6660370  32.4382990  12.0553318
   4.2618918  33.1098675  12.0390683   4.1978060  34.0063807   9.2431681
   4.8323139  34.6024232   9.1781143   4.2803670  33.7067264  10.0577551
   4.3034611  34.0504715   9.3534768  17.1760625  36.5379284  22.1118045
  17.7678466  37.1776535  22.1436243  17.6119620  35.8402321  22.4010112
  17.3279057  36.5297635  22.1598878   5.7757043  29.9377782   9.2177123
   6.0972884  29.4580865   8.5636385   6.0383986  30.7477428   9.0267935
   5.8623068  29.9867680   9.0932615   9.0054015  40.9596657  22.7375939
   8.4979106  41.5132503  23.1816570   8.7080662  41.0204947  21.9194714
   8.8858900  41.0502968  22.6824396   0.7031048  36.2031648  12.5121227
   1.2123277  36.7996155  12.8932533   1.1765320  35.9357621  11.8297647
   0.8474423  36.2517463  12.4675750  11.6161796  44.8759914  10.6679883
  10.8991105  44.7020777  10.2027120  12.2668533  44.6412487  10.1355369
  11.6063646  44.8155707  10.5209101   9.6110420  25.7965076  14.9891179
   8.9678738  25.6462722  15.5576318   9.2709827  25.5507421  14.2240284
   9.4655498  25.7377199  14.9594194  14.2009767  33.7524503  14.4121188
  13.5300957  34.2954205  14.2834253  14.8949517  34.2219358  14.1702883
  14.2038634  33.9022774  14.3576716   3.0621579  32.8387906  15.3794408
   2.3433568  33.2552039  15.6467271   3.4333942  33.4042145  14.8286046
   3.0113511  32.9837188  15.3377215  12.3621160  33.4715755  21.2696403
  12.3419087  33.2899050  22.1231182  12.4100361  34.3427774  21.2455987
  12.3655801  33.5732293  21.3919698  10.3067490  40.0602947  27.1944880
  10.2663345  39.4152624  26.6090036  11.1190808  40.0039564  27.5070292
  10.4210643  39.9561914  27.1541829   8.8368154  31.8785906  10.7167787
   8.2432993  32.2002903  10.1652354   8.8743431  31.0327001  10.5088893
   8.7542543  31.8010234  10.6050558  11.7125970  31.8365411  14.1469537
  11.4839663  31.8598112  13.3047895  11.9724046  31.0122878  14.2664548
  11.7172158  31.7181491  14.0394735   5.9945199  33.6899884  23.7494637
   5.4824102  33.0821067  24.1079669   5.8224695  34.4056476  24.2168613
   5.8934836  33.7063183  23.8710861   0.8410913  32.1337459  26.3996999
   0.6713504  32.7938834  25.8545206   0.3976863  32.3444020  27.1209488
   0.7510247  32.2623441  26.4258629   4.7670733  30.3741957  15.4423733
   5.2428099  30.7359037  14.8073914   4.2659332  31.0298424  15.7223876
   4.7636092  30.5236146  15.3900474  17.9982094  39.8463725  11.2336738
  18.3815700  40.5955081  11.4634835  17.2026208  40.0929545  10.9748727
  17.9375877  39.9933419  11.2294311   9.8714269  31.6124128  26.1896893
  10.4285699  31.3837938  25.5575358   9.5475334  32.3729794  25.9132105
   9.9060679  31.6907965  26.0553390   7.5897386  34.6991782  27.1548900
   8.3408713  35.0143458  27.4688454   7.7819963  34.4970952  26.3282822
   7.7288800  34.7159163  27.0792296   6.8097386  32.5183157   8.8097117
   7.1896351  32.5362786   8.0248232   6.0689982  32.9637146   8.6887964
   6.7566224  32.5864931   8.6760685  12.1623528  35.5062850  18.0508902
  12.6577194  34.7885845  18.0112923  11.3523304  35.2033647  17.9363389
  12.1167422  35.3560496  18.0282628   7.6082140  39.3560663  10.2005907
   6.7993463  39.0327336  10.1539216   8.1157049  38.6493885  10.1334156
   7.5631807  39.2041979  10.1836201  14.2275347  38.2566537  20.7386031
  14.6530419  37.7340959  20.1856456  13.8632267  38.8547375  20.2174654
  14.2361950  38.2676764  20.5795041  10.8153947  41.9700801  17.0687189
  11.2865125  42.6841064  17.2377174  11.1514125  41.3699552  17.6047058
  10.9349062  41.9872266  17.1719565  12.9030931  43.5802115  29.2479261
  13.0127897  42.7910675  29.6036008  13.2321828  43.4908051  28.4453599
  12.9683337  43.4507968  29.1821651   7.7323442  26.7428272  24.0245283
   7.8651347  25.9459265  24.3526259   8.1168594  27.2694675  24.6043559
   7.8079771  26.7028189  24.1588786  11.4527893  41.7618736  23.8314881
  10.9048839  41.1376619  23.5634947  11.9140922  41.9513008  23.1158961
  11.4395103  41.6977786  23.6865312  10.8055797  23.6658598  20.6226377
  10.0001761  23.5556328  20.9394215  10.6762532  23.7671054  19.7656243
  10.6675930  23.6642268  20.5434417   6.8016557  28.7444685  11.4924748
   7.6232251  28.9142998  11.2506443   6.3386208  28.8991946  10.7691046
   6.8547719  28.7926418  11.3496393   5.3911889  26.7387447  22.2723177
   5.9356301  26.3978574  22.8627519   5.4448824  27.5972909  22.4144462
   5.4801008  26.8142706  22.3805051   1.2042447  40.5003863  19.1461985
   1.8087305  40.4599697  18.5175806   0.9969760  41.3475015  19.1766041
   1.2631345  40.6191866  19.0578102  11.0186219  42.7669808  20.3624223
  11.8384593  42.6232774  20.6240518  10.7380297  43.3916007  20.9040660
  11.0982963  42.8380160  20.4812162  17.4175341  44.3589377  17.0510412
  17.0878672  44.8100520  16.3814111  16.7420343  44.2805540  17.5983419
  17.2685778  44.4140512  17.0333636  24.6251749  40.3474900  15.2960023
  24.3105190  41.0378378  15.7280445  24.1078691  40.2919682  14.5945524
  24.5016220  40.4409788  15.2556972  15.6231296  42.4201665  12.5333360
  16.3777264  42.7879982  12.2950410  15.4458830  42.7941219  13.3012540
  15.7085774  42.5299853  12.6118249  13.9788360  44.8271984   9.2311473
  13.7963933  45.0443865   8.4052466  14.8413973  44.9410997   9.2870088
  14.0792950  44.8761882   9.1165960  19.6588079  41.8298395  12.2660497
  20.3874240  41.6514350  11.8198653  19.7482972  42.6716475  12.4767675
  19.7794741  41.9282273  12.2314015  26.5974034  43.6338887  19.1624622
  27.2399943  43.7036992  19.7486537  26.8497055  42.9668110  18.6604164
  26.7296166  43.5465236  19.1751901  21.8325317  44.7275859  16.8735575
  21.1281643  44.2385044  17.0319494  21.8810291  44.7398333  16.0024019
  21.7355368  44.6565507  16.7674915  29.0355536  48.4083524  14.8936585
  28.7792101  47.5963466  14.7034468  29.8784850  48.4161092  14.6666773
  29.1221562  48.2895522  14.8321402  23.2158629  42.3483149  19.6312740
  23.5969141  41.6661320  20.0180614  22.4121913  42.0592751  19.4488404
  23.1535090  42.2050197  19.6616795  17.1750469  44.8537347  29.4975348
  16.8603910  45.6236910  29.2344911  16.8540402  44.2907603  28.9127575
  17.0809388  44.8847615  29.3716698  14.7282366  43.2427868  15.1121544
  13.8604792  43.3150468  15.1779154  15.0157570  44.0449947  15.3009519
  14.6422114  43.3722015  15.1496311  23.8515255  43.3905728  23.4432866
  24.5968847  43.2015538  23.0296292  23.4352559  43.9163966  22.8846722
  23.9000229  43.4407873  23.2997439  31.2277526  50.7614956  18.3938371
  31.7785447  50.1283025  18.6335463  31.2121641  51.2930349  19.0853875
  31.3062722  50.7463904  18.5317229  24.9305932  49.0011290  17.5042967
  24.5870698  48.2801625  17.8550217  25.0298975  48.7925141  16.6621326
  24.8947975  48.8635493  17.4314647  23.4496897  46.9202875  19.3802510
  22.6107998  46.9464153  19.1440773  23.5201265  47.5673610  19.9607857
  23.3365291  47.0199000  19.4311627  21.8966176  43.8188252  14.1130126
  22.5992528  43.6196000  13.6350084  21.6310364  43.0464194  14.4198970
  21.9612808  43.6751218  14.0875568  16.6594732  45.0823537  23.1661007
  16.4677929  45.0978671  24.0160430  17.5093328  45.2787211  23.1427662
  16.7570454  45.1137888  23.2884301  19.5698959  45.2779046  23.3732830
  20.0271573  46.0103020  23.5005622  19.6455288  44.8545511  24.1320086
  19.6489929  45.3236284  23.5033906  24.0426285  38.4568921  17.2426673
  24.1609853  38.9145385  16.5093976  23.8688461  37.6514183  16.9562890
  24.0345456  38.4062693  17.0927606  17.4481337  47.2681150  20.2174654
  16.6577412  47.0872610  20.5391990  17.8441960  46.4908103  20.2004948
  17.3898213  47.1268611  20.2627202  21.6189120  47.2019788  23.1957992
  21.8331090  46.5630702  22.6421346  21.0023019  47.6465612  22.7665854
  21.5594449  47.1729932  23.0508423  23.7828208  48.8108853  24.1341299
  22.9704890  48.5034744  24.2154472  24.2418143  48.3307853  24.6984011
  23.7308593  48.6945346  24.2295893  21.0103849  40.3119724  18.1845335
  20.1397407  40.2858445  18.1378644  21.2644190  40.1396916  17.3671180
  20.9197409  40.2829867  18.0565471  18.0352989  42.3225952  19.6418805
  17.5191478  41.6306144  19.7670384  17.4746918  42.9896729  19.5881404
  17.8759502  42.3189210  19.6524871  20.1045223  42.8618912  21.4711658
  19.7176976  42.8867944  22.2525188  19.6178160  42.2960591  21.0186174
  19.9757731  42.7814663  21.5199561  26.0795202  49.4281567  20.0951360
  25.6522810  49.3407916  19.3399459  25.4421255  49.5359343  20.6806204
  25.9224809  49.4314227  20.0696801  19.7702364  39.7485898  23.7621918
  20.3995482  40.2846198  23.4842988  19.9388227  39.6563257  24.6135483
  19.8880159  39.8147260  23.8470446  19.5716279  44.5357092  26.0348329
  20.3989709  44.2642241  26.0906944  19.5924125  45.3317934  26.3912147
  19.6969129  44.6136847  26.0963512  23.2626283  42.2821786  16.7307219
  23.4675876  42.2144094  17.5764217  22.9352707  43.0880607  16.6628397
  23.2441531  42.3907727  16.8466875  17.0168531  46.9202874  13.0360889
  17.2928265  46.2021787  12.6238457  17.6167200  47.5187794  12.8281995
  17.1461796  46.9023245  12.9441650  26.5159970  42.8353550  16.2109985
  25.9034284  43.3223953  16.5963717  26.6124145  42.1597041  16.7547636
  26.4397868  42.8071859  16.3488843  20.5179051  44.5916392  11.3107484
  20.9722798  44.7626952  12.0355329  20.9919097  43.9784502  10.9105260
  20.6547372  44.5267277  11.3581246  14.4355200  45.2366715  21.3078240
  14.8956681  45.3105645  22.0453364  14.4811306  46.0347969  20.9578062
  14.5105755  45.3660862  21.3650997  16.0838549  45.9033410  25.8750267
  15.6924115  45.2566757  26.3106045  16.2524412  46.4944845  26.4944523
  16.0509460  45.8947678  26.0312973  19.7771647  43.0909185  17.4484353
  18.9307692  43.2631993  17.3225703  19.7742779  42.2858529  17.7850181
  19.6518797  42.9970214  17.4795480  20.8469947  46.8684399  18.3146411
  20.3729902  46.3426161  18.8251722  21.2188083  46.3213872  17.7461272
  20.8319836  46.7100396  18.3061558  22.7753447  47.7620954  11.3772165
  22.2476466  47.8449698  10.6877873  23.2349155  48.5038825  11.3736809
  22.7655297  47.8841616  11.2746860  29.1111865  48.7088232  17.6782450
  28.8721635  48.6684066  16.8403235  29.2745766  49.5559384  17.8048172
  29.1002168  48.8280317  17.5735932  21.7955812  41.4652738  23.1166033
  21.2996373  41.6616412  22.4257599  22.5524874  41.8645407  22.9454834
  21.8342637  41.5530472  22.9886169  19.0658691  45.1395084  19.7069343
  19.0901179  44.6055196  19.0182123  19.3170165  44.6312393  20.3694934
  19.1068610  44.9855988  19.7033988  15.3460014  43.8665902  19.0875088
  15.3858385  44.3675109  19.8009795  14.5209678  43.9576296  18.8181011
  15.2299540  43.9547719  19.1525626  14.5758160  43.8735305  27.0205397
  15.2010864  43.3297438  27.2934830  14.1208640  43.3930223  26.4513188
  14.6006421  43.7224786  26.9766991  16.7489626  45.4563090   9.2177123
  17.0705467  44.9766173   8.5636385  17.0116570  46.2662736   9.0267935
  16.8355652  45.5052988   9.0932615  22.1448781  44.8435284  21.5800602
  22.5703853  44.3907811  20.9684129  21.5305774  44.2895355  21.8565390
  22.1177426  44.6949260  21.5305627  20.5843004  41.3150384  14.9891179
  19.9411322  41.1648030  15.5576318  20.2442411  41.0692729  14.2240284
  20.4388081  41.2562506  14.9594194  25.1742350  49.2709811  14.4121188
  24.5033540  49.8139513  14.2834253  25.8682101  49.7404666  14.1702883
  25.1771218  49.4208082  14.3576716  25.3370478  45.7265694  17.3211561
  25.6898088  45.2995417  17.9957360  24.4785279  45.6416538  17.4512637
  25.2619923  45.6510435  17.4406571  19.8100737  47.3971214  10.7167787
  19.2165577  47.7188211  10.1652354  19.8476015  46.5512309  10.5088893
  19.7275126  47.3195542  10.6050558  26.7694538  40.8484106  18.2495874
  26.2625403  40.1413246  18.1817051  27.5661972  40.5177295  18.3796950
  26.8121777  40.6957258  18.2594868  22.6858554  47.3550719  14.1469537
  22.4572247  47.3783420  13.3047895  22.9456630  46.5308186  14.2664548
  22.6904742  47.2366798  14.0394735  15.7403316  45.8927265  15.4423733
  16.2160683  46.2544345  14.8073914  15.2391916  46.5483732  15.7223876
  15.7368675  46.0421454  15.3900474  20.8446853  47.1309436  26.1896893
  21.4018283  46.9023246  25.5575358  20.5207918  47.8915102  25.9132105
  20.8793263  47.2093273  26.0553390  25.4115260  46.3450656  14.3972696
  25.4109486  46.1899312  15.2556972  25.2071440  47.1913643  14.3414081
  25.3815038  46.4471277  14.5160635  18.7056025  42.2613580  24.0245283
  18.8383931  41.4644573  24.3526259  19.0901178  42.7879983  24.6043559
  18.7812354  42.2213497  24.1588786  21.7788380  39.1843906  20.6226377
  20.9734344  39.0741636  20.9394215  21.6495116  39.2856362  19.7656243
  21.6408513  39.1827576  20.5434417  25.2354341  45.3489398  21.2166074
  24.6517330  45.8498604  20.8043641  25.5558635  44.8418954  20.5830397
  25.1967516  45.3481233  21.0624581  17.7749140  44.2629993  11.4924748
  18.5964835  44.4328306  11.2506443  17.3118791  44.4177254  10.7691046
  17.8280302  44.3111726  11.3496393  16.3644472  42.2572755  22.2723177
  16.9088885  41.9163882  22.8627519  16.4181408  43.1158217  22.4144462
  16.4533591  42.3328014  22.3805051  12.7211512  17.1989660  14.6220532
  13.4278279  16.7041691  14.7507467  12.9099447  17.6398741  13.8923190
  12.8539417  17.1908010  14.5329578   5.2144430  25.3961833   4.4474936
   5.8581886  25.8374997   4.8371095   5.5400686  24.5915260   4.3605195
   5.3576259  25.3427028   4.4920413   8.1612388  18.2359166   6.7434694
   8.4435631  17.4410572   6.5221450   8.8898548  18.7139753   6.7639755
   8.3101952  18.1893763   6.7137709  18.1430476  17.3418528   3.7170525
  17.3128179  17.5529172   3.8803941  18.0939729  16.5155583   3.4412809
  18.0137212  17.2508134   3.7007890   6.2040214  20.1722382   6.5518434
   5.6867156  19.8129797   5.9479743   6.9014605  19.6484557   6.5624501
   6.2305795  20.0420070   6.4648693   9.8603806  20.6217196  12.5134607
   9.9487152  20.4343337  13.3612818  10.2893518  19.9754626  12.1139454
   9.9365908  20.4980204  12.5806359   7.4274266  19.9048356  11.4952270
   6.8645100  19.4920966  12.0191931   8.1895289  19.8301262  11.9145413
   7.4568714  19.8325757  11.6345270  17.6384435   9.9888929   7.5120946
  16.8012856  10.0591116   7.7468541  17.6072666   9.9913424   6.6395249
  17.5102717   9.9999156   7.4180494   4.0349164  12.1321964  13.2269315
   4.2069667  12.0227859  14.0754596   4.5718521  12.7776370  12.9900507
   4.1394168  12.2113966  13.3174412   2.9373736  18.5053605   7.9087813
   3.4771961  18.3624736   8.5791186   2.2543682  18.9050356   8.2771840
   2.9165889  18.5433276   8.0622235  15.3994792  18.0117883   3.8535241
  14.9630023  18.0154625   4.6094212  15.0657707  18.6923382   3.4214818
  15.2857412  18.1130338   3.9016073   9.9723865  20.0526215  15.1778391
  10.7564282  20.1657063  15.5434133   9.7720460  19.2267353  15.3737077
  10.0589891  19.9472935  15.2612777  10.1294258  21.9636317   8.8244847
   9.3309504  21.7235818   9.0818715  10.5780270  22.0150710   9.5711894
  10.0768870  21.9358709   8.9729771   1.8150046  12.2297678  11.8516088
   2.5390018  12.2150708  12.3380983   1.9166182  12.9393033  11.3538056
   1.9368255  12.3322381  11.8494875   9.1894995  15.7096762  16.7165035
   8.3967976  16.0240274  16.9017655   9.3043922  15.9248231  15.8785819
   9.0890406  15.7880599  16.6203370  10.1178788  15.6116966  11.6550332
  10.6917650  14.9744210  11.8098895  10.0393592  15.6121049  10.7859989
  10.1912023  15.5182078  11.5496742  15.4398936  16.9825944  11.6635185
  15.2037573  16.1514009  11.5447245  16.0842165  16.9311551  12.2490029
  15.4993607  16.8523632  11.7321078   5.8968710   6.2730170  16.4315395
   5.5822151   7.0429733  16.1684958   5.5758642   5.7100426  15.8467622
   5.8027629   6.3040439  16.3056745  16.4635357  16.7670393   7.7263479
  16.1581174  17.4998449   8.0876795  15.7441572  16.3608322   7.4456265
  16.3122699  16.8152125   7.7376616  22.1637149  13.4063393   7.0531823
  22.0961649  13.4259352   6.1834410  22.1492811  14.2493720   7.2787494
  22.1515905  13.5337128   6.9584300  19.9495766  12.1807779   5.3278418
  20.5003688  11.5475848   5.5675510  19.9339881  12.7123172   6.0193922
  20.0280962  12.1656728   5.4657276   5.5285215   8.8727421  15.1700610
   4.7184991   9.1785201  15.0590452   6.0059902   9.5933003  15.2853194
   5.4788694   9.0242022  15.1707681  13.8146526  17.5757791   6.0116140
  13.6760886  18.2738837   6.5164882  13.0346524  17.4206447   5.6552321
  13.6789753  17.6557958   6.0342414  12.1524612  13.8754166  12.2638521
  12.1472650  13.0033983  12.2680948  12.8585605  14.0742336  11.7907977
  12.2569616  13.7758041  12.1945557   5.8795505  13.6031150  11.6352341
   6.0238881  14.1832358  10.9995451   6.2271153  13.9807447  12.3402196
   5.9522966  13.7451854  11.6451336   8.0515422  12.8021319   9.4177473
   7.3038736  12.9952333   9.0125751   8.2056947  11.9766538   9.1801594
   7.9637850  12.7086430   9.3222879   4.9523260  21.7933922   8.5013368
   5.1012824  21.2336838   7.8486773   5.7323262  21.8725924   8.8845887
   5.0897354  21.7219488   8.4610317   7.4776561  21.9648565   9.7797859
   7.4020232  21.2957376  10.3348647   7.4066420  22.6666353  10.2938525
   7.4557167  21.9693472   9.9374707   8.6837407  11.1634232  11.6338200
   8.6196549  12.0244189  11.5058336   8.8234595  10.8466226  10.8333751
   8.6952878  11.2434399  11.4966412   6.8668195  25.3716885   8.2375860
   7.3564125  24.6727674   8.0551524   6.2952427  25.0740755   8.8251917
   6.8552725  25.2243108   8.2976901  13.0635198  17.9378954  17.1902650
  13.8770064  17.6664103  17.3507783  12.9030165  17.6386494  16.3862846
  13.1605147  17.8533880  17.0948056  12.5046448  10.2301676  11.0681346
  11.6923130   9.9227567  11.1494519  12.9636383   9.7500677  11.6324058
  12.4526833  10.1138169  11.1635940   9.5999956  11.6361748  15.8510048
  10.0699587  12.2603864  16.2377922   9.6461836  10.9678723  16.4103263
   9.6767832  11.6296428  15.9910120  13.0756442  18.9985244  12.4625491
  13.7136163  18.5045440  12.1287947  12.4330534  18.9262645  11.8777718
  13.0750669  18.9144253  12.3267846   8.2934520   5.9549916  12.9688376
   9.1207949   5.6835064  13.0246990   8.3142366   6.7510757  13.3252194
   8.4187370   6.0329670  13.0303559  13.1310699  19.6905053   9.1030848
  13.9203077  19.3394117   9.2232929  13.3054297  20.5041441   8.8407482
  13.2730981  19.7590910   9.0818716   4.7439025  18.2444898  10.1128332
   4.6359380  18.2546960  10.9790390   4.9534807  19.0699679   9.9233286
   4.7589136  18.3685973  10.2132424  18.8803239  15.3263310   8.5727548
  18.9386363  15.7749959   9.3187524  18.2469706  15.7362123   8.1357628
  18.7954534  15.4537045   8.6180096  12.5202334  20.9466852   5.0082294
  12.3222022  21.4357667   4.3138505  11.8990045  21.1508094   5.5866427
  12.3989898  21.0483391   4.9905517  15.8324918  13.3479598   6.6593238
  15.5923141  12.5086013   6.6635665  16.3116925  13.4279765   7.3834012
  15.8677102  13.2360998   6.7668040  14.4376135  14.5131005  10.5427542
  15.1610334  14.0603531  10.3638562  14.1726098  14.7935670   9.7599870
  14.5057409  14.4881973  10.4006258  10.2194925  14.6114883   8.6922557
   9.6051918  14.0672933   8.9871193  10.7362210  14.0979119   8.2128374
  10.2050587  14.4551292   8.6646786   6.2507867  14.8519466  14.1235429
   5.4003497  14.9891180  14.2593074   6.4135995  14.1183244  14.5683131
   6.1491730  14.7633567  14.2091028  16.8711449  13.4757415   9.0458092
  17.4629290  14.1154666   9.0776290  17.3070444  12.7780452   9.3350159
  17.0229881  13.4675766   9.0938925   8.7004839  17.8974788   9.6715986
   8.1929930  18.4510635  10.1156617   8.4031485  17.9583078   8.8534761
   8.5809724  17.9881099   9.6164443   7.9447325  22.8299346   6.5772993
   7.7212979  22.0718175   6.9457019   7.4557168  22.8597367   5.8553433
   7.8390774  22.7221571   6.5249734  10.0018314  16.9981078  14.1284927
   9.9614169  16.3530755  13.5430083  10.8141632  16.9417696  14.4410339
  10.1161467  16.8940045  14.0881876   9.9591076  22.2089889   4.7833694
   9.5607359  22.3192160   4.0154514   9.3442295  22.4171956   5.3660254
   9.8089965  22.2563457   4.7564993   9.5665093   8.5502259  13.1236940
  10.1236523   8.3216069  12.4915405   9.2426158   9.3107925  12.8472152
   9.6011503   8.6286096  12.9893437   7.2848210  11.6369913  14.0888947
   8.0359537  11.9521590  14.4028501   7.4770787  11.4349084  13.2622869
   7.4239624  11.6537295  14.0132343  13.9226171  15.1944668   7.6726078
  14.3481243  14.6719090   7.1196503  13.5583091  15.7925506   7.1514701
  13.9312774  15.2054895   7.5135088   3.5580251  23.4908886   6.4323424
   3.8726810  24.3045274   6.4401205   3.9673664  23.1059105   7.1005583
   3.6648349  23.5537588   6.5327515  12.5981755  20.5180246  16.1819308
  12.7078721  19.7288807  16.5376055  12.9272652  20.4286182  15.3793646
  12.6634161  20.3886099  16.1161698  11.1478717  18.6996867  10.7654928
  10.5999663  18.0754750  10.4974993  11.6091746  18.8891139  10.0499008
  11.1345927  18.6355917  10.6205359  10.7137043  19.7047939   7.2964269
  11.5335417  19.5610905   7.5580564  10.4331121  20.3294138   7.8380707
  10.7933787  19.7758291   7.4152209  27.1850694  27.3612791   0.2607146
  27.1544698  28.2157428   0.4325415  27.7832042  27.0608084   0.8193289
  27.2687852  27.4429288   0.3681948  20.3850379  26.4488442   5.0160076
  19.5288274  26.6096940   5.0669193  20.4318032  25.5780506   5.0365137
  20.2649490  26.3439244   5.0266142  14.7691518  35.9851160   0.7797308
  14.0174418  35.6066698   0.5513353  15.2177530  36.0169594   0.0316118
  14.7241185  35.9336767   0.6354810  23.2302200  28.5080486   7.6591728
  23.7758160  29.1865573   7.7185697  23.1719076  28.3667947   6.7993309
  23.3018114  28.5872488   7.5403788  16.3476274  35.9969552   3.0460080
  16.4486637  35.1869906   3.3557208  15.7518020  35.9026499   2.4159759
  16.2748813  35.8634580   2.9986319  25.0067268  29.9365093  -1.4674544
  24.8906794  30.6872779  -1.0382406  25.8023155  29.6789046  -1.2178457
  25.1071858  30.0099940  -1.3670453  16.1877014  40.9147141   4.4474936
  16.8314470  41.3560305   4.8371095  16.5133270  40.1100568   4.3605195
  16.3308843  40.8612336   4.4920413  11.8431406  24.1875569   5.5696722
  11.2236438  23.5968217   5.4006736  11.7415270  24.7787005   4.9361045
  11.7369082  24.1879652   5.4501711  16.8897594  33.9259116  -0.1805202
  17.2113435  34.4664324  -0.7843894  17.5369690  33.3555888  -0.0482912
  17.0323649  33.9218291  -0.2498167  18.9399302  25.9275111  -0.0970815
  19.6379467  26.1063239   0.3950648  19.2551634  25.4045451  -0.7200426
  19.0894639  25.8768883  -0.1168805  11.5700539  27.7327851   7.8140290
  11.4459236  28.3190297   8.4490109  12.2218824  27.2388047   8.1152565
  11.6474189  27.7466656   7.9526220  19.1287237  32.3145556  -0.1091024
  19.5680873  31.7062657   0.3363749  18.9791900  31.9352930  -0.8805559
  19.1708703  32.1684027  -0.1571857  16.5958880  30.9089568   7.0927802
  17.2407883  30.4162011   6.7738750  16.8360657  31.0514355   7.9193880
  16.7269465  30.8567010   7.1677335  19.1344972  33.7544474   6.7434694
  19.4168214  32.9595880   6.5221450  19.8631132  34.2325061   6.7639755
  19.2834535  33.7079071   6.7137709  17.1126165  21.2967508   3.9850459
  16.7829495  21.7478651   3.3154158  16.4371167  21.2183671   4.5323466
  16.9636602  21.3518643   3.9673683  24.3202573  17.2853031   2.2300070
  24.0056014  17.9756509   2.6620492  23.8029515  17.2297813   1.5285571
  24.1967044  17.3787919   2.1897019  23.6615007  27.2857532  -1.6562520
  23.1326478  27.5017165  -0.9965213  24.1840027  27.9793670  -1.7361550
  23.6603460  27.4200669  -1.5706920  29.1163060  32.8603836   3.7170525
  28.2860763  33.0714480   3.8803941  29.0672312  32.0340891   3.4412809
  28.9869795  32.7693442   3.7007890  17.1772797  35.6907690   6.5518434
  16.6599739  35.3315105   5.9479743  17.8747189  35.1669865   6.5624501
  17.2038379  35.5605378   6.4648693  20.8336389  36.1402504  12.5134607
  20.9219735  35.9528645  13.3612818  21.2626102  35.4939934  12.1139454
  20.9098492  36.0165512  12.5806359  18.4006849  35.4233664  11.4952270
  17.8377684  35.0106274  12.0191931  19.1627873  35.3486570  11.9145413
  18.4301298  35.3511065  11.6345270  13.9602841  37.4131685   4.0988900
  14.6623420  36.8983675   4.1561656  13.8800324  37.7405837   4.9035775
  14.0526601  37.3845912   4.2261692  28.6117018  25.5074237   7.5120946
  27.7745439  25.5776424   7.7468541  28.5805249  25.5098732   6.6395249
  28.4835301  25.5184464   7.4180494  13.2853616  33.6038037   3.6074508
  14.1242516  33.8360970   3.6548269  13.3165385  32.7342349   3.5381543
  13.4135334  33.5094984   3.6039153  13.9106319  34.0238913   7.9087813
  14.4504544  33.8810044   8.5791186  13.2276265  34.4235663   8.2771840
  13.8898473  34.0618584   8.0622235  23.3347204  29.7029913   3.1032838
  24.0904719  30.1361428   3.1421746  23.4409528  29.0534683   3.6767474
  23.4617375  29.6707397   3.1930863  26.3727375  33.5303191   3.8535241
  25.9362607  33.5339933   4.6094212  26.0390291  34.2108690   3.4214818
  26.2589995  33.6315646   3.9016073   9.3143464  30.2439203   8.0622235
   9.0481879  29.4278320   8.2213225   9.3282028  30.2892359   7.1917750
   9.2768187  30.1296108   7.9575717  26.2924858  20.5717018   6.0964669
  26.9350766  20.6415123   6.6826584  26.5447879  19.9046241   5.5944211
  26.4246990  20.4843367   6.1091948  14.0642071  23.7817582  10.7089243
  13.3713867  23.3114561  10.9549974  14.6802398  23.5555886  11.2830950
  14.0526601  23.6784714  10.8298395  21.1026842  37.4821625   8.8244847
  20.3042088  37.2421125   9.0818715  21.5512854  37.5336018   9.5711894
  21.0501453  37.4544017   8.9729771  29.5071721  30.2484110   2.7454878
  30.1688155  29.6874779   2.6450786  28.8663133  29.7536141   3.0707569
  29.5100589  30.0920519   2.7787218  25.7936552  31.2649493   2.4866867
  26.0292141  31.4094692   1.6593717  25.9426116  32.0291901   2.8798380
  25.8502355  31.3988547   2.4230471  12.7882630  27.7482986  11.8516088
  13.5122602  27.7336016  12.3380983  12.8898766  28.4578341  11.3538056
  12.9100839  27.8507689  11.8494875  22.8358898  27.9516061   1.0060051
  22.9305752  28.6905356   1.4599676  22.2117741  27.5233537   1.4394615
  22.7567928  27.9977382   1.1368198   9.6907788  27.9091484   5.4933046
  10.2681291  27.7727934   6.1325291   8.9921850  27.4527268   5.7478630
   9.6728810  27.8213750   5.6255335  16.4475090  29.5625539   3.7071529
  16.1894335  28.7297274   3.6802828  16.5023573  29.7883152   2.8664029
  16.4174868  29.4723310   3.5791666  21.5276141  21.6653990   3.8075622
  20.8232467  21.1763175   3.9659541  21.5761115  21.6776464   2.9364066
  21.4306192  21.5943638   3.7014961  15.4209803  27.1163302   4.1936424
  14.8459394  27.2755470   4.8300385  15.0445479  26.4798711   3.7304874
  15.2812615  27.0461115   4.2190982  19.0883091  25.5886651   9.0528802
  18.6997524  25.1640869   8.3980993  18.4237790  25.8368801   9.5605829
  18.9330019  25.5625372   9.0316670  28.7306360  25.3461656   1.8276632
  28.4742925  24.5341597   1.6374515  29.5735674  25.3539223   1.6006820
  28.8172386  25.2273653   1.7661449  22.9109453  19.2861280   6.5652786
  23.2919964  18.6039451   6.9520661  22.1072737  18.9970882   6.3828451
  22.8485914  19.1428328   6.5956842  20.1922029  29.8185256  -2.7494391
  21.0062668  30.1100148  -2.8611620  20.1281171  29.1645118  -3.3236098
  20.3024768  29.7650450  -2.8505554  26.4131520  32.5011252  11.6635185
  26.1770157  31.6699316  11.5447245  27.0574749  32.4496859  12.2490029
  26.4726190  32.3708940  11.7321078  16.0629938  33.2906773   2.3777921
  16.7003885  33.0518521   2.9229715  16.4885009  33.4943932   1.6431082
  16.2206104  33.2857783   2.3495079  10.7542580  35.5295109   6.2612225
  10.7946725  35.8009961   5.4332005  11.3137104  36.0537018   6.6770013
  10.8425926  35.6470865   6.2004113  16.7032753  28.5109063  -3.2847189
  17.0877905  28.2916769  -2.5330644  16.4544373  29.3372008  -3.1546113
  16.7234825  28.6007209  -3.1546113  27.4367940  32.2855700   7.7263479
  27.1313757  33.0183757   8.0876795  26.7174156  31.8793630   7.4456265
  27.2855283  32.3337433   7.7376616  18.4451410  33.7679196   4.0571707
  18.5190418  33.6054367   4.9113557  19.2620916  33.9569385   3.8132189
  18.5767768  33.7715938   4.1469733  33.1369732  28.9248701   7.0531823
  33.0694233  28.9444660   6.1834410  33.1225395  29.7679028   7.2787494
  33.1248489  29.0522436   6.9584300  23.5466079  20.3283859  10.3772913
  24.2919671  20.1393669   9.9636338  23.1303383  20.8542097   9.8186769
  23.5951053  20.3786004  10.2337486  30.9228350  27.6993087   5.3278418
  31.4736271  27.0661156   5.5675510  30.9072465  28.2308480   6.0193922
  31.0013546  27.6842035   5.4657276  17.5750741  31.5331685   9.8738311
  17.0762434  32.2447452   9.9523200  18.3850965  31.8532351   9.8356474
  17.6206847  31.6858533   9.8794880  14.9261911  38.7081321   1.8545331
  14.7062206  38.4178676   2.6471998  14.7056433  38.0496276   1.3263243
  14.8609505  38.5681029   1.8934239  13.8378858  30.7954638   4.1201032
  13.5492107  30.1692109   4.6546760  14.7062206  30.7374925   4.1865713
  13.9239110  30.6942182   4.2091987  24.6256756  25.9389421   4.4383014
  24.2821522  25.2179756   4.7890264  24.7249798  25.7303272   3.5961372
  24.5898799  25.8013624   4.3654694  14.0411131  32.4349889   0.0443397
  14.7957099  32.8162928   0.2578860  13.4481744  32.8861032   0.4990094
  14.0647845  32.5578716   0.1426276  15.3609358  33.6058450   5.4183513
  14.8390112  33.7458742   6.1035377  15.7483378  32.8469114   5.6085630
  15.3413059  33.5143974   5.5484589  16.7875684  30.6362469   0.8165004
  16.5918466  31.2437204   0.2225307  17.0110029  29.9430413   0.3356678
  16.7910325  30.6239995   0.6581085  15.1854214  27.5217207   0.9345872
  15.9076866  27.6858365   0.4749678  14.7062207  28.2426872   0.8285212
  15.2217944  27.6515437   0.8511486  23.1447721  23.8581006   6.3142557
  22.3058822  23.8842285   6.0780820  23.2152089  24.5051741   6.8947904
  23.0316115  23.9577132   6.3651674  12.8361830  29.9275279  10.0400012
  13.3482927  30.2059533   9.3908772  12.5498173  30.6664573  10.4062825
  12.8696694  30.0777633   9.9989890  21.5917000  20.7566383   1.0470173
  22.2943352  20.5574131   0.5690131  21.3261188  19.9842325   1.3539016
  21.6563632  20.6129349   1.0215615  27.0205245  29.0648993   3.6003799
  26.9339220  29.2204419   4.4538578  26.5655725  29.7087068   3.2263204
  26.9408502  29.1824748   3.6710906  16.3545556  22.0201668  10.1001054
  16.1628753  22.0356802  10.9500477  17.2044152  22.2165342  10.0767708
  16.4521278  22.0516019  10.2224348  10.7392469  24.5492649   8.0784870
  10.5977961  23.6976590   8.2029378  11.0233032  24.5921310   7.2547076
  10.7600315  24.4292399   7.9752494  20.8931061  26.3859740   2.2229358
  20.6465775  26.3055491   3.0566147  21.2216184  25.6013207   2.0291886
  20.9052305  26.2586005   2.3176881  24.7879110  33.0943099   6.0116140
  24.6493469  33.7924145   6.5164882  24.0079108  32.9391755   5.6552321
  24.6522337  33.1743266   6.0342414  16.8528088  29.1216458  11.6352341
  16.9971464  29.7017666  10.9995451  17.2003737  29.4992755  12.3402196
  16.9255550  29.2637162  11.6451336  19.0248006  28.3206627   9.4177473
  18.2771320  28.5137641   9.0125751  19.1789531  27.4951846   9.1801594
  18.9370433  28.2271738   9.3222879  15.9255843  37.3119230   8.5013368
  16.0745407  36.7522146   7.8486773  16.7055846  37.3911232   8.8845887
  16.0629937  37.2404795   8.4610317  18.4509144  37.4833873   9.7797859
  18.3752815  36.8142683  10.3348647  18.3799003  38.1851661  10.2938525
  18.4289751  37.4878780   9.9374707  11.5082774  22.4622997  11.3962320
  10.9724964  21.8503355  11.7123088  11.5700539  23.0371133  12.0495987
  11.4378407  22.4569925  11.5397747  23.7377109  15.3947052   4.1766720
  23.8560677  15.8523516   3.4434022  23.5639285  14.5892314   3.8902937
  23.7296280  15.3440825   4.0267653  19.1079391  36.0034872   0.6121465
  19.8729282  35.7344516   0.2904129  19.0057481  35.5184882   1.3291528
  19.2060887  35.8924436   0.6701293  17.1432161  24.2059281   7.1514701
  16.3528236  24.0250741   7.4732037  17.5392784  23.4286234   7.1344995
  17.0849037  24.0646742   7.1967249  22.5275847  31.8401711   4.8774147
  21.8520849  31.6086944   5.3787534  22.5368223  31.2322894   4.2516252
  22.4294352  31.7160637   4.8590299  18.3389085  29.3751680   5.7754403
  17.9151334  29.5756179   5.0393421  18.1633940  28.5280528   5.8878702
  18.2499966  29.2800461   5.6828093  17.8400778  40.8902193   8.2375860
  18.3296709  40.1912982   8.0551524  17.2685011  40.5926063   8.8251917
  17.8285308  40.7428416   8.2976901  13.6271530  29.8703731   1.2082375
  13.7836149  29.8050534   2.0638367  13.9672123  30.6452284   0.9961055
  13.7004765  29.9752929   1.3036969  20.1650675  29.2461615   0.0775738
  20.7066220  28.7431996   0.5414359  20.4797234  29.1926809  -0.7334776
  20.2915072  29.1641036   0.0259550  21.3139944  24.1397919  10.1298039
  21.5281913  23.5008833   9.5761393  20.6973843  24.5843743   9.7005900
  21.2545273  24.1108063   9.9848470  10.2005791  27.0538682   1.5243142
  10.5804756  27.4723227   0.8603410   9.6261156  27.6352137   1.8311986
  10.1717116  27.2016540   1.4719883  23.4779032  25.7486984  11.0681346
  22.6655714  25.4412875  11.1494519  23.9368967  25.2685985  11.6324058
  23.4259417  25.6323477  11.1635940  22.8884287  33.6266656   1.5158290
  22.5298941  33.7981299   2.2922323  22.4022997  34.0879862   0.9586289
  22.7642984  33.7205627   1.5483559  20.7054673  17.2497855   5.1185382
  19.8348231  17.2236576   5.0718691  20.9595014  17.0775047   4.3011227
  20.6148233  17.2207999   4.9905518  17.7303813  19.2604083   6.5758852
  17.2142302  18.5684275   6.7010431  17.1697742  19.9274860   6.5221451
  17.5710326  19.2567341   6.5864918  19.7996047  19.7997043   8.4051705
  19.4127800  19.8246075   9.1865234  19.3128984  19.2338722   7.9526221
  19.6708555  19.7192794   8.4539608  24.0489026  34.5170552  12.4625491
  24.6868746  34.0230748  12.1287947  23.4063118  34.4447953  11.8777718
  24.0483252  34.4329561  12.3267846  25.7746026  26.3659698   7.0291407
  25.3473634  26.2786047   6.2739506  25.1372079  26.4737474   7.6146251
  25.6175633  26.3692358   7.0036848  19.4653188  16.6864029  10.6961964
  20.0946306  17.2224329  10.4183035  19.6339051  16.5941388  11.5475530
  19.5830983  16.7525391  10.7810493  19.2667103  21.4735224  12.9688376
  20.0940532  21.2020372  13.0246990  19.2874949  22.2696065  13.3252194
  19.3919953  21.5514978  13.0303559  24.1043283  35.2090361   9.1030848
  24.8935661  34.8579425   9.2232929  24.2786880  36.0226749   8.8407482
  24.2463564  35.2776218   9.0818716  13.8436593  28.6199086   6.1558637
  13.0024600  28.5202961   6.3637530  14.0526601  29.3894567   6.5072957
  13.7501286  28.7191130   6.2385952  11.3212160  26.2418623   3.9843387
  10.9268858  26.3161635   3.2093497  10.7652277  26.6276570   4.5351749
  11.1814972  26.3100398   3.9511047  22.9577107  19.2199917   3.6647266
  23.1626700  19.1522225   4.5104263  22.6303531  20.0258739   3.5968444
  22.9392355  19.3285858   3.7806921  17.6553258  26.5480486   5.4056234
  17.3516395  25.9936474   6.0066642  16.9532679  26.7272695   4.9184268
  17.5069468  26.4925268   5.4225940  16.7119355  23.8581005  -0.0299064
  16.9879089  23.1399918  -0.4421496  17.3118024  24.4565925  -0.2377958
  16.8412620  23.8401376  -0.1218303  15.7171609  33.7630206  10.1128332
  15.6091964  33.7732268  10.9790390  15.9267390  34.5884987   9.9233286
  15.7321720  33.8871281  10.2132424  26.2110794  19.7731682   3.1450032
  25.5985108  20.2602084   3.5303764  26.3074969  19.0975172   3.6887683
  26.1348692  19.7449990   3.2828890  13.7345401  31.0142849   7.5750270
  13.1433334  31.6552347   7.5453285  14.4966424  31.4380466   7.5481569
  13.7593661  31.1718687   7.5665417  14.1306024  22.1744846   8.2418287
  14.5907505  22.2483776   8.9793411  14.1762130  22.9726100   7.8918109
  14.2056579  22.3038993   8.2991044  29.8535822  30.8448618   8.5727548
  29.9118946  31.2935267   9.3187524  29.2202290  31.2547431   8.1357628
  29.7687118  30.9722353   8.6180096  23.4934917  36.4652160   5.0082294
  23.2954606  36.9542975   4.3138505  22.8722628  36.6693402   5.5866427
  23.3722482  36.5668698   4.9905517  17.5542895  28.2337057  -0.6507462
  18.2984940  28.6211333  -0.4124512  17.7003592  27.3894482  -0.4866974
  17.6853481  28.1667530  -0.5913492  19.4722471  20.0287316   4.3824400
  18.6258516  20.2010124   4.2565750  19.4693603  19.2236660   4.7190228
  19.3469621  19.9348345   4.4135527  20.5420771  23.8062530   5.2486458
  20.0680726  23.2804292   5.7591769  20.9138907  23.2592003   4.6801319
  20.5270660  23.6478527   5.2401605  10.9193801  25.8034037  10.6170003
  11.7819414  25.7029746  10.5307333  10.5885584  25.2228746  10.0555576
  10.9978998  25.7025664  10.5215409  26.8057502  28.8664906   6.6593238
  26.5655725  28.0271321   6.6635665  27.2849509  28.9465073   7.3834012
  26.8409686  28.7546306   6.7668040  22.4704271  24.6999085  -1.6887789
  21.9427290  24.7827829  -2.3782080  22.9299979  25.4416956  -1.6923144
  22.4606121  24.8219747  -1.7913093  28.8062689  25.6466363   4.6122497
  28.5672459  25.6062197   3.7743282  28.9696590  26.4937515   4.7388218
  28.7952992  25.7658448   4.5075979  25.4108719  30.0316313  10.5427542
  26.1342918  29.5788839  10.3638562  25.1458681  30.3120978   9.7599870
  25.4789992  30.0067281  10.4006258  14.2795587  24.6276486   7.2780422
  13.6548658  24.6394878   6.6706374  13.9441182  25.1036661   7.9271662
  14.1381079  24.6995003   7.2836990  10.9921263  32.6876946   8.7184186
  10.4621187  31.9969385   8.7679161  11.2646356  32.6787131   7.8896894
  10.9545985  32.5844078   8.6031602  21.1927509  30.1300191   8.6922557
  20.5784502  29.5858241   8.9871193  21.7094793  29.6164427   8.2128374
  21.1783171  29.9736600   8.6646786  20.4323806  31.2004461   6.4266856
  20.0051414  30.5754179   5.9932291  20.4248750  30.9179383   7.2525863
  20.3682947  31.0657241   6.4846684  13.5486333  26.2369634   9.4955290
  13.7079819  25.4812958   9.9007012  13.3679226  26.7860573  10.1496028
  13.5451692  26.2063448   9.6517996  21.4906636  18.4030869  10.0506080
  20.9947197  18.5994544   9.3597646  22.2475698  18.8023538   9.8794881
  21.5293460  18.4908603   9.9226216  18.7609515  22.0773215   6.6409390
  18.7852003  21.5433328   5.9522170  19.0120989  21.5690524   7.3034981
  18.8019434  21.9234119   6.6374035   6.2717105  29.3604710   6.0752534
   6.1660554  29.3151555   5.2104618   5.5217325  29.7058491   6.3566819
   6.1452708  29.4045618   5.9889864  15.0410838  20.8044034   6.0215134
  15.0809209  21.3053240   6.7349842  14.2160502  20.8954427   5.7521057
  14.9250364  20.8925850   6.0865673  16.4625201  27.3204543   8.3189033
  15.6317131  27.4878361   8.1124282  16.4076718  26.9440494   9.1037919
  16.3314616  27.2894275   8.4037562  14.8361245  25.5960135  -1.1520849
  14.9764206  26.0932599  -0.4492208  15.3343778  24.8946429  -1.0106635
  14.9302326  25.5662114  -1.0269270  27.8444033  28.9942723   9.0458092
  28.4361873  29.6339974   9.0776290  28.2803027  28.2965760   9.3350159
  27.9962464  28.9861074   9.0938925  19.6737423  33.4160096   9.6715986
  19.1662514  33.9695943  10.1156617  19.3764069  33.4768386   8.8534761
  19.5542308  33.5066407   9.6164443  21.8399605  21.7813415   8.5140649
  22.2654677  21.3285942   7.9024175  21.2256598  21.2273486   8.7905436
  21.8128250  21.6327392   8.4645674  11.3714455  28.6595087  -0.5538726
  11.8806684  29.2559594  -0.1727421  11.8448727  28.3921060  -1.2362306
  11.5157831  28.7080902  -0.5984203  20.2793828  18.2528515   1.9231226
  19.6362146  18.1026161   2.4916364  19.9393235  18.0070860   1.1580331
  20.1338905  18.1940638   1.8934241  24.8693174  26.2087942   1.3461235
  24.1984364  26.7517644   1.2174300  25.5632925  26.6782797   1.1042929
  24.8722042  26.3586213   1.2916762  18.9179908  38.3484654   6.5772993
  18.6945563  37.5903483   6.9457019  18.4289751  38.3782675   5.8553433
  18.8123357  38.2406878   6.5249734  25.0321302  22.6643826   4.2551608
  25.3848912  22.2373549   4.9297407  24.1736103  22.5794669   4.3852684
  24.9570746  22.5888566   4.3746618  13.7304987  25.2951345   2.3134454
  13.0116976  25.7115478   2.5807318  14.1017349  25.8605584   1.7626093
  13.6796919  25.4400627   2.2717261  23.0304568  25.9279194   8.2036450
  23.0102495  25.7462489   9.0571229  23.0783768  26.7991213   8.1796034
  23.0339209  26.0295732   8.3259745  17.5658365  38.5685112   4.0310078
  17.1518764  37.9059242   3.6413919  18.2505739  38.7162971   3.5105772
  17.6056737  38.4925770   3.8966575  20.9323659  37.7275197   4.7833694
  20.5339942  37.8377468   4.0154514  20.3174879  37.9357264   5.3660254
  20.7822548  37.7748765   4.7564993  26.4645362  17.7862237   5.1835920
  25.9576227  17.0791377   5.1157098  27.2612796  17.4555426   5.3136997
  26.5072601  17.6335389   5.1934915  22.3809378  24.2928850   1.0809584
  22.1523071  24.3161551   0.2387942  22.6407454  23.4686317   1.2004595
  22.3855566  24.1744930   0.9734782  16.6628606  26.1463323  10.6834684
  16.1507509  25.5384506  11.0419716  16.4908102  26.8619915  11.1508660
  16.5618243  26.1626622  10.8050908  11.5094321  24.5900898  13.3337046
  11.3396911  25.2502273  12.7885253  11.0660271  24.8007459  14.0549535
  11.4193654  24.7186880  13.3598676  15.4354140  22.8305396   2.3763780
  15.9111507  23.1922476   1.7413961  14.9342740  23.4861864   2.6563922
  15.4319499  22.9799585   2.3240521   8.4096385  27.4947764   8.5925536
   7.8623105  26.8248409   8.7106404   9.1988764  27.1277611   8.6569003
   8.4448569  27.3412750   8.6194236  25.1066084  23.2828787   1.3312742
  25.1060310  23.1277444   2.1897019  24.9022264  24.1291774   1.2754128
  25.0765862  23.3849408   1.4500682   7.1683355  26.7068571   5.7471559
   6.9905116  26.2545180   6.4726475   6.8802377  27.5094733   5.9310036
   7.0996308  26.7591129   5.8815062  22.8306936  27.9626289   4.9848949
  23.3260601  27.2449284   4.9452970  22.0206712  27.6597086   4.8703436
  22.7850829  27.8123935   4.9622675  18.2765548  31.8124102  -2.8654046
  17.4676870  31.4890776  -2.9120737  18.7840456  31.1057324  -2.9325798
  18.2315214  31.6605418  -2.8823752   8.9055825  29.2396295   2.8593318
   8.0401344  29.2281986   2.7476089   9.0054641  29.0526518   3.7064457
   8.7929992  29.2102356   2.9682262  24.8958755  30.7129976   7.6726078
  25.3213826  30.1904398   7.1196503  24.5315675  31.3110814   7.1514701
  24.9045357  30.7240203   7.5135088  14.5312835  39.0094194   6.4323424
  14.8459394  39.8230582   6.4401205  14.9406248  38.6244412   7.1005583
  14.6380933  39.0722896   6.5327515  21.4837354  34.4264241   4.0027235
  21.9548532  35.1404503   4.1717221  21.8197533  33.8262991   4.5387105
  21.6032469  34.4435705   4.1059611  18.4006849  19.1991711  10.9585330
  18.5334755  18.4022705  11.2866306  18.7852002  19.7258114  11.5383606
  18.4763178  19.1591628  11.0928833  22.1211301  34.2182175  10.7654928
  21.5732247  33.5940058  10.4974993  22.5824329  34.4076447  10.0499008
  22.1078510  34.1541225  10.6205359  21.4739204  16.1222037   7.5566424
  20.6685168  16.0119767   7.8734262  21.3445940  16.2234493   6.6996289
  21.3359337  16.1205707   7.4774464  24.9305165  22.2867529   8.1506120
  24.3468154  22.7876736   7.7383688  25.2509459  21.7797085   7.5170444
  24.8918340  22.2859364   7.9964628  16.0595296  19.1950886   9.2063224
  16.6039709  18.8542013   9.7967566  16.1132232  20.0536348   9.3484509
  16.1484415  19.2706146   9.3145097  11.8725855  32.9567302   6.0802032
  12.4770712  32.9163136   5.4515853  11.6653167  33.8038454   6.1106088
  11.9314752  33.0755305   5.9918148  21.6869627  35.2233247   7.2964269
  22.5068001  35.0796213   7.5580564  21.4063705  35.8479446   7.8380707
  21.7666370  35.2943599   7.4152209   7.1077137  31.9401920   5.9500955
   7.0101415  31.1298191   6.2591012   7.8906007  31.9193713   5.5647223
   7.2093274  31.8169010   5.9387818  34.6676679  48.2360276  14.6220532
  35.3743446  47.7412306  14.7507467  34.8564614  48.6769357  13.8923190
  34.8004584  48.2278626  14.5329578  22.8163990  39.7060877   5.5696722
  22.1969021  39.1153525   5.4006736  22.7147853  40.2972313   4.9361045
  22.7101665  39.7064960   5.4501711  22.5433123  43.2513159   7.8140290
  22.4191820  43.8375605   8.4490109  23.1951407  42.7573355   8.1152565
  22.6206772  43.2651963   7.9526220  25.9814331  43.1692580  13.2269315
  26.1534835  43.0598475  14.0754596  26.5183688  43.8146986  12.9900507
  26.0859335  43.2484582  13.3174412  31.9189032  51.0896831  15.1778391
  32.7029449  51.2027679  15.5434133  31.7185627  50.2637968  15.3737077
  32.0055058  50.9843551  15.2612777  20.2876048  45.7624511   8.0622235
  20.0214463  44.9463628   8.2213225  20.3014612  45.8077667   7.1917750
  20.2500770  45.6481416   7.9575717  25.0374654  39.3002890  10.7089243
  24.3446451  38.8299869  10.9549974  25.6534981  39.0741194  11.2830950
  25.0259184  39.1970021  10.8298395  23.7615213  43.2668294  11.8516088
  24.4855185  43.2521324  12.3380983  23.8631350  43.9763649  11.3538056
  23.8833422  43.3692997  11.8494875  31.1360163  46.7467378  16.7165035
  30.3433143  47.0610890  16.9017655  31.2509090  46.9618847  15.8785819
  31.0355573  46.8251215  16.6203370  20.6640372  43.4276791   5.4933046
  21.2413874  43.2913242   6.1325291  19.9654433  42.9712576   5.7478630
  20.6461393  43.3399058   5.6255335  30.0615675  41.1071959   9.0528802
  29.6730107  40.6826177   8.3980993  29.3970373  41.3554109   9.5605829
  29.9062603  41.0810680   9.0316670  33.8842036  34.8046588   6.5652786
  34.2652548  34.1224759   6.9520661  33.0805321  34.5156190   6.3828451
  33.8218498  34.6613636   6.5956842  27.8433877  37.3100786  16.4315395
  27.5287318  38.0800349  16.1684958  27.5223809  36.7471042  15.8467622
  27.7492796  37.3411055  16.3056745  34.5198662  35.8469167  10.3772913
  35.2652254  35.6578977   9.9636338  34.1035967  36.3727405   9.8186769
  34.5683637  35.8971312  10.2337486  27.4750382  39.9098037  15.1700610
  26.6650158  40.2155817  15.0590452  27.9525069  40.6303619  15.2853194
  27.4253861  40.0612638  15.1707681  23.8094414  45.4460587  10.0400012
  24.3215511  45.7244841   9.3908772  23.5230757  46.1849881  10.4062825
  23.8429277  45.5962941   9.9989890  27.3278139  37.5386976  10.1001054
  27.1361336  37.5542110  10.9500477  28.1776735  37.7350650  10.0767708
  27.4253861  37.5701327  10.2224348  21.7125052  40.0677957   8.0784870
  21.5710544  39.2161898   8.2029378  21.9965616  40.1106618   7.2547076
  21.7332899  39.9477707   7.9752494  34.0989779  44.9124782  12.2638521
  34.0937817  44.0404599  12.2680948  34.8050773  45.1112951  11.7907977
  34.2034783  44.8128656  12.1945557  27.8260672  44.6401766  11.6352341
  27.9704048  45.2202974  10.9995451  28.1736321  45.0178063  12.3402196
  27.8988133  44.7822470  11.6451336  29.9980589  43.8391935   9.4177473
  29.2503903  44.0322949   9.0125751  30.1522115  43.0137154   9.1801594
  29.9103017  43.7457046   9.3222879  30.2382366  37.7342485  10.3072877
  30.6954981  38.4666460  10.4345669  30.3138695  37.3108950  11.0660132
  30.3173336  37.7799723  10.4373953  22.4815358  37.9808305  11.3962320
  21.9457547  37.3688663  11.7123088  22.5433122  38.5556441  12.0495987
  22.4110990  37.9755233  11.5397747  34.7109692  30.9132360   4.1766720
  34.8293260  31.3708824   3.4434022  34.5371868  30.1077622   3.8902937
  34.7028863  30.8626133   4.0267653  28.1164744  39.7244589   7.1514701
  27.3260819  39.5436049   7.4732037  28.5125367  38.9471542   7.1344995
  28.0581621  39.5832050   7.1967249  30.6302575  42.2004848  11.6338200
  30.5661716  43.0614805  11.5058336  30.7699762  41.8836841  10.8333751
  30.6418045  42.2805015  11.4966412  35.0100366  48.9749570  17.1902650
  35.8235231  48.7034719  17.3507783  34.8495332  48.6757110  16.3862846
  35.1070314  48.8904496  17.0948056  32.2872528  39.6583227  10.1298039
  32.5014497  39.0194141   9.5761393  31.6706427  40.1029051   9.7005900
  32.2277857  39.6293371   9.9848470  34.4511616  41.2672292  11.0681346
  33.6388297  40.9598183  11.1494519  34.9101550  40.7871292  11.6324058
  34.3992000  41.1508785  11.1635940  31.6787256  32.7683163   5.1185382
  30.8080814  32.7421884   5.0718691  31.9327597  32.5960355   4.3011227
  31.5880816  32.7393307   4.9905518  31.5465123  42.6732364  15.8510048
  32.0164754  43.2974480  16.2377922  31.5927003  42.0049339  16.4103263
  31.6232999  42.6667044  15.9910120  28.7036397  34.7789391   6.5758852
  28.1874885  34.0869583   6.7010431  28.1430326  35.4460168   6.5221451
  28.5442910  34.7752649   6.5864918  30.7728630  35.3182351   8.4051705
  30.3860383  35.3431383   9.1865234  30.2861567  34.7524030   7.9526221
  30.6441139  35.2378102   8.4539608  30.4385772  32.2049337  10.6961964
  31.0678890  32.7409637  10.4183035  30.6071635  32.1126696  11.5475530
  30.5563566  32.2710699  10.7810493  30.2399687  36.9920531  12.9688376
  31.0673116  36.7205680  13.0246990  30.2607533  37.7881373  13.3252194
  30.3652537  37.0700286  13.0303559  25.1038607  37.6930154   8.2418287
  25.5640089  37.7669084   8.9793411  25.1494714  38.4911408   7.8918109
  25.1789163  37.8224301   8.2991044  26.7521957  38.3596849  12.8090314
  26.3607522  37.7130196  13.2446092  26.9207820  38.9508284  13.4284570
  26.7192867  38.3511117  12.9653020  30.4455054  35.5472624   4.3824400
  29.5991100  35.7195432   4.2565750  30.4426187  34.7421968   4.7190228
  30.3202204  35.4533653   4.4135527  21.8926385  41.3219345  10.6170003
  22.7551998  41.2215054  10.5307333  21.5618168  40.7414054  10.0555576
  21.9711581  41.2210972  10.5215409  25.2528171  40.1461794   7.2780422
  24.6281241  40.1580186   6.6706374  24.9173766  40.6221969   7.9271662
  25.1113663  40.2180311   7.2836990  24.5218916  41.7554942   9.4955290
  24.6812403  40.9998266   9.9007012  24.3411810  42.3045881  10.1496028
  24.5184275  41.7248756   9.6517996  32.4639219  33.9216177  10.0506080
  31.9679781  34.1179852   9.3597646  33.2208281  34.3208846   9.8794881
  32.5026044  34.0093911   9.9226216  29.7342099  37.5958523   6.6409390
  29.7584586  37.0618636   5.9522170  29.9853573  37.0875832   7.3034981
  29.7752018  37.4419427   6.6374035  17.2449689  44.8790018   6.0752534
  17.1393138  44.8336863   5.2104618  16.4949909  45.2243799   6.3566819
  17.1185292  44.9230926   5.9889864  26.0143421  36.3229342   6.0215134
  26.0541793  36.8238548   6.7349842  25.1893086  36.4139735   5.7521057
  25.8982947  36.4111158   6.0865673  28.1973034  45.8890081  14.1235429
  27.3468665  46.0261796  14.2593074  28.3601162  45.1553860  14.5683131
  28.0956898  45.8004183  14.2091028  27.4357785  42.8389851   8.3189033
  26.6049714  43.0063669   8.1124282  27.3809302  42.4625802   9.1037919
  27.3047199  42.8079583   8.4037562  25.2441568  36.3298744  13.9545444
  25.8694271  35.7860877  14.2274876  24.7892048  35.8493662  13.3853234
  25.2689828  36.1788226  13.9107038  32.8132189  37.2998723   8.5140649
  33.2387260  36.8471250   7.9024175  32.1989182  36.7458794   8.7905436
  32.7860834  37.1512699   8.4645674  31.9483481  48.0351694  14.1284927
  31.9079336  47.3901371  13.5430083  32.7606799  47.9788311  14.4410339
  32.0626635  47.9310661  14.0881876  27.6361190  41.6648631  10.6834684
  27.1240093  41.0569814  11.0419716  27.4640686  42.3805223  11.1508660
  27.5350827  41.6811930  10.8050908  22.4826904  40.1086206  13.3337046
  22.3129495  40.7687581  12.7885253  22.0392854  40.3192767  14.0549535
  22.3926238  40.2372188  13.3598676  31.5130260  39.5872875  13.1236940
  32.0701690  39.3586685  12.4915405  31.1891325  40.3478541  12.8472152
  31.5476670  39.6656712  12.9893437  19.3828969  43.0133072   8.5925536
  18.8355688  42.3433717   8.7106404  20.1721347  42.6462919   8.6569003
  19.4181153  42.8598058   8.6194236  29.2313377  42.6740529  14.0888947
  29.9824704  42.9892205  14.4028501  29.4235954  42.4719700  13.2622869
  29.3704792  42.6907910  14.0132343  18.1415938  42.2253879   5.7471559
  17.9637700  41.7730488   6.4726475  17.8534961  43.0280041   5.9310036
  18.0728892  42.2776437   5.8815062  34.5446922  51.5550862  16.1819308
  34.6543888  50.7659422  16.5376055  34.8737819  51.4656798  15.3793646
  34.6099328  51.4256715  16.1161698  29.3739433  34.7177019  10.9585330
  29.5067338  33.9208012  11.2866306  29.7584586  35.2443422  11.5383606
  29.4495762  34.6776936  11.0928833  32.4471788  31.6407345   7.5566424
  31.6417752  31.5305075   7.8734262  32.3178523  31.7419801   6.6996289
  32.3091921  31.6391015   7.4774464  35.9037749  37.8052837   8.1506120
  35.3200737  38.3062044   7.7383688  36.2242043  37.2982393   7.5170444
  35.8650924  37.8044672   7.9964628  27.0327880  34.7136194   9.2063224
  27.5772293  34.3727321   9.7967566  27.0864815  35.5721656   9.3484509
  27.1216999  34.7891453   9.3145097  34.3627503  25.1738407   1.5560579
  35.0694270  24.6790438   1.6847513  34.5515438  25.6147488   0.8263237
  34.4955408  25.1656757   1.4669624  25.6765155  20.1070711   0.1609362
  25.8485658  19.9976606   1.0094643  26.2134512  20.7525117  -0.0759446
  25.7810159  20.1862713   0.2514458  31.6139856  28.0274962   2.1118438
  32.3980273  28.1405810   2.4774180  31.4136451  27.2016100   2.3077124
  31.7005882  27.9221682   2.1952824  23.4566037  20.2046425  -1.2143865
  24.1806009  20.1899455  -0.7278971  23.5582174  20.9141780  -1.7121897
  23.5784246  20.3071128  -1.2165079  30.8310986  23.6845509   3.6505082
  30.0383967  23.9989021   3.8357701  30.9459914  23.8996978   2.8125866
  30.7306397  23.7629346   3.5543416  31.7594779  23.5865713  -1.4109622
  32.3333641  22.9492957  -1.2561058  31.6809583  23.5869796  -2.2799964
  31.8328014  23.4930825  -1.5163211  27.5384701  14.2478917   3.3655442
  27.2238142  15.0178480   3.1025004  27.2174633  13.6849173   2.7807669
  27.4443620  14.2789186   3.2396792  27.1701206  16.8476168   2.1040656
  26.3600982  17.1533948   1.9930499  27.6475893  17.5681750   2.2193240
  27.1204685  16.9990769   2.1047728  33.7940603  21.8502913  -0.8021432
  33.7888641  20.9782730  -0.7979006  34.5001597  22.0491083  -1.2751976
  33.8985607  21.7506788  -0.8714397  27.5211496  21.5779897  -1.4307612
  27.6654872  22.1581105  -2.0664502  27.8687145  21.9556194  -0.7257757
  27.5938957  21.7200601  -1.4208617  29.6931413  20.7770066  -3.6482480
  28.9454727  20.9701080  -4.0534202  29.8472939  19.9515285  -3.8858359
  29.6053841  20.6835177  -3.7437074  30.3253399  19.1382979  -1.4321754
  30.2612540  19.9992936  -1.5601617  30.4650586  18.8214973  -2.2326202
  30.3368869  19.2183146  -1.5693541  34.7051189  25.9127701   4.1242697
  35.5186055  25.6412850   4.2847830  34.5446156  25.6135241   3.3202893
  34.8021138  25.8282627   4.0288103  34.1462439  18.2050423  -1.9978607
  33.3339121  17.8976314  -1.9165435  34.6052374  17.7249424  -1.4335895
  34.0942824  18.0886916  -1.9024013  31.2415947  19.6110495   2.7850095
  31.7115578  20.2352611   3.1717969  31.2877827  18.9427470   3.3443310
  31.3183823  19.6045175   2.9250166  29.9350511  13.9298663  -0.0971577
  30.7623940  13.6583812  -0.0412963  29.9558357  14.7259504   0.2592241
  30.0603361  14.0078417  -0.0356394  27.8923858  22.8268213   1.0575476
  27.0419489  22.9639927   1.1933121  28.0551986  22.0931991   1.5023177
  27.7907722  22.7382314   1.1431075  31.6434305  24.9729825   1.0624973
  31.6030160  24.3279502   0.4770129  32.4557623  24.9166443   1.3750385
  31.7577459  24.8688792   1.0221923  31.2081084  16.5251006   0.0576987
  31.7652514  16.2964816  -0.5744548  30.8842149  17.2856672  -0.2187801
  31.2427494  16.6034843  -0.0766516  28.9264201  19.6118660   1.0228994
  29.6775528  19.9270337   1.3368548  29.1186778  19.4097831   0.1962916
  29.0655615  19.6286042   0.9472390  34.2397746  28.4928993   3.1159354
  34.3494712  27.7037554   3.4716102  34.5688643  28.4034929   2.3133692
  34.3050152  28.3634846   3.0501745
  49.2869040  49.2869040  49.2869040 109.4712190 109.4712190 109.4712190
